# vtk DataFile Version 3.0

ASCII
DATASET UNSTRUCTURED_GRID
POINTS 2113 float
0.0 0.0 0.0
1.0 0.0 0.0
1.0 1.0 0.0
0.0 1.0 0.0
0.5 0.5 0.0
0.5 0.0 0.0
1.0 0.5 0.0
0.5 1.0 0.0
0.0 0.5 0.0
0.25 0.25 0.0
0.75 0.25 0.0
0.75 0.75 0.0
0.25 0.75 0.0
0.25 0.0 0.0
0.75 0.0 0.0
1.0 0.25 0.0
1.0 0.75 0.0
0.75 1.0 0.0
0.25 1.0 0.0
0.0 0.75 0.0
0.0 0.25 0.0
0.375 0.375 0.0
0.125 0.125 0.0
0.875 0.125 0.0
0.625 0.375 0.0
0.875 0.875 0.0
0.625 0.625 0.0
0.375 0.625 0.0
0.125 0.875 0.0
0.375 0.125 0.0
0.625 0.125 0.0
0.5 0.25 0.0
0.125 0.625 0.0
0.125 0.375 0.0
0.25 0.5 0.0
0.875 0.375 0.0
0.875 0.625 0.0
0.75 0.5 0.0
0.625 0.875 0.0
0.375 0.875 0.0
0.5 0.75 0.0
0.125 0.0 0.0
0.375 0.0 0.0
0.625 0.0 0.0
0.875 0.0 0.0
1.0 0.125 0.0
1.0 0.375 0.0
1.0 0.625 0.0
1.0 0.875 0.0
0.875 1.0 0.0
0.625 1.0 0.0
0.375 1.0 0.0
0.125 1.0 0.0
0.0 0.875 0.0
0.0 0.625 0.0
0.0 0.375 0.0
0.0 0.125 0.0
0.438 0.438 0.0
0.313 0.313 0.0
0.188 0.188 0.0
0.063 0.063 0.0
0.938 0.063 0.0
0.813 0.188 0.0
0.688 0.313 0.0
0.563 0.438 0.0
0.938 0.938 0.0
0.813 0.813 0.0
0.688 0.688 0.0
0.563 0.563 0.0
0.438 0.563 0.0
0.313 0.688 0.0
0.188 0.813 0.0
0.063 0.938 0.0
0.438 0.063 0.0
0.313 0.188 0.0
0.563 0.063 0.0
0.688 0.188 0.0
0.375 0.25 0.0
0.625 0.25 0.0
0.063 0.563 0.0
0.188 0.688 0.0
0.063 0.438 0.0
0.188 0.313 0.0
0.25 0.625 0.0
0.25 0.375 0.0
0.938 0.438 0.0
0.813 0.313 0.0
0.938 0.563 0.0
0.813 0.688 0.0
0.75 0.375 0.0
0.75 0.625 0.0
0.563 0.938 0.0
0.688 0.813 0.0
0.438 0.938 0.0
0.313 0.813 0.0
0.625 0.75 0.0
0.375 0.75 0.0
0.188 0.063 0.0
0.313 0.063 0.0
0.25 0.125 0.0
0.813 0.063 0.0
0.688 0.063 0.0
0.75 0.125 0.0
0.5 0.375 0.0
0.438 0.313 0.0
0.563 0.313 0.0
0.5 0.125 0.0
0.563 0.188 0.0
0.438 0.188 0.0
0.063 0.813 0.0
0.063 0.688 0.0
0.125 0.75 0.0
0.063 0.188 0.0
0.063 0.313 0.0
0.125 0.25 0.0
0.375 0.5 0.0
0.313 0.563 0.0
0.313 0.438 0.0
0.125 0.5 0.0
0.188 0.438 0.0
0.188 0.563 0.0
0.938 0.188 0.0
0.938 0.313 0.0
0.875 0.25 0.0
0.938 0.813 0.0
0.938 0.688 0.0
0.875 0.75 0.0
0.625 0.5 0.0
0.688 0.438 0.0
0.688 0.563 0.0
0.875 0.5 0.0
0.813 0.563 0.0
0.813 0.438 0.0
0.813 0.938 0.0
0.688 0.938 0.0
0.75 0.875 0.0
0.188 0.938 0.0
0.313 0.938 0.0
0.25 0.875 0.0
0.5 0.625 0.0
0.563 0.688 0.0
0.438 0.688 0.0
0.5 0.875 0.0
0.438 0.813 0.0
0.563 0.813 0.0
0.063 0.0 0.0
0.188 0.0 0.0
0.313 0.0 0.0
0.438 0.0 0.0
0.563 0.0 0.0
0.688 0.0 0.0
0.813 0.0 0.0
0.938 0.0 0.0
1.0 0.063 0.0
1.0 0.188 0.0
1.0 0.313 0.0
1.0 0.438 0.0
1.0 0.563 0.0
1.0 0.688 0.0
1.0 0.813 0.0
1.0 0.938 0.0
0.938 1.0 0.0
0.813 1.0 0.0
0.688 1.0 0.0
0.563 1.0 0.0
0.438 1.0 0.0
0.313 1.0 0.0
0.188 1.0 0.0
0.063 1.0 0.0
0.0 0.938 0.0
0.0 0.813 0.0
0.0 0.688 0.0
0.0 0.563 0.0
0.0 0.438 0.0
0.0 0.313 0.0
0.0 0.188 0.0
0.0 0.063 0.0
0.469 0.469 0.0
0.406 0.406 0.0
0.344 0.344 0.0
0.281 0.281 0.0
0.219 0.219 0.0
0.156 0.156 0.0
0.094 0.094 0.0
0.031 0.031 0.0
0.969 0.031 0.0
0.906 0.094 0.0
0.844 0.156 0.0
0.781 0.219 0.0
0.719 0.281 0.0
0.656 0.344 0.0
0.594 0.406 0.0
0.531 0.469 0.0
0.969 0.969 0.0
0.906 0.906 0.0
0.844 0.844 0.0
0.781 0.781 0.0
0.719 0.719 0.0
0.656 0.656 0.0
0.594 0.594 0.0
0.531 0.531 0.0
0.469 0.531 0.0
0.406 0.594 0.0
0.344 0.656 0.0
0.281 0.719 0.0
0.219 0.781 0.0
0.156 0.844 0.0
0.094 0.906 0.0
0.031 0.969 0.0
0.469 0.031 0.0
0.406 0.094 0.0
0.344 0.156 0.0
0.281 0.219 0.0
0.531 0.031 0.0
0.594 0.094 0.0
0.656 0.156 0.0
0.719 0.219 0.0
0.313 0.25 0.0
0.438 0.25 0.0
0.563 0.25 0.0
0.688 0.25 0.0
0.031 0.531 0.0
0.094 0.594 0.0
0.156 0.656 0.0
0.219 0.719 0.0
0.031 0.469 0.0
0.094 0.406 0.0
0.156 0.344 0.0
0.219 0.281 0.0
0.25 0.688 0.0
0.25 0.563 0.0
0.25 0.438 0.0
0.25 0.313 0.0
0.969 0.469 0.0
0.906 0.406 0.0
0.844 0.344 0.0
0.781 0.281 0.0
0.969 0.531 0.0
0.906 0.594 0.0
0.844 0.656 0.0
0.781 0.719 0.0
0.75 0.313 0.0
0.75 0.438 0.0
0.75 0.563 0.0
0.75 0.688 0.0
0.531 0.969 0.0
0.594 0.906 0.0
0.656 0.844 0.0
0.719 0.781 0.0
0.469 0.969 0.0
0.406 0.906 0.0
0.344 0.844 0.0
0.281 0.781 0.0
0.688 0.75 0.0
0.563 0.75 0.0
0.438 0.75 0.0
0.313 0.75 0.0
0.219 0.031 0.0
0.156 0.094 0.0
0.281 0.031 0.0
0.344 0.094 0.0
0.188 0.125 0.0
0.313 0.125 0.0
0.781 0.031 0.0
0.844 0.094 0.0
0.719 0.031 0.0
0.656 0.094 0.0
0.813 0.125 0.0
0.688 0.125 0.0
0.438 0.375 0.0
0.563 0.375 0.0
0.406 0.344 0.0
0.469 0.281 0.0
0.594 0.344 0.0
0.531 0.281 0.0
0.563 0.125 0.0
0.438 0.125 0.0
0.594 0.156 0.0
0.531 0.219 0.0
0.406 0.156 0.0
0.469 0.219 0.0
0.031 0.781 0.0
0.094 0.844 0.0
0.031 0.719 0.0
0.094 0.656 0.0
0.125 0.813 0.0
0.125 0.688 0.0
0.031 0.219 0.0
0.094 0.156 0.0
0.031 0.281 0.0
0.094 0.344 0.0
0.125 0.188 0.0
0.125 0.313 0.0
0.375 0.563 0.0
0.375 0.438 0.0
0.344 0.594 0.0
0.281 0.531 0.0
0.344 0.406 0.0
0.281 0.469 0.0
0.125 0.438 0.0
0.125 0.563 0.0
0.156 0.406 0.0
0.219 0.469 0.0
0.156 0.594 0.0
0.219 0.531 0.0
0.969 0.219 0.0
0.906 0.156 0.0
0.969 0.281 0.0
0.906 0.344 0.0
0.875 0.188 0.0
0.875 0.313 0.0
0.969 0.781 0.0
0.906 0.844 0.0
0.969 0.719 0.0
0.906 0.656 0.0
0.875 0.813 0.0
0.875 0.688 0.0
0.625 0.438 0.0
0.625 0.563 0.0
0.656 0.406 0.0
0.719 0.469 0.0
0.656 0.594 0.0
0.719 0.531 0.0
0.875 0.563 0.0
0.875 0.438 0.0
0.844 0.594 0.0
0.781 0.531 0.0
0.844 0.406 0.0
0.781 0.469 0.0
0.781 0.969 0.0
0.844 0.906 0.0
0.719 0.969 0.0
0.656 0.906 0.0
0.813 0.875 0.0
0.688 0.875 0.0
0.219 0.969 0.0
0.156 0.906 0.0
0.281 0.969 0.0
0.344 0.906 0.0
0.188 0.875 0.0
0.313 0.875 0.0
0.563 0.625 0.0
0.438 0.625 0.0
0.594 0.656 0.0
0.531 0.719 0.0
0.406 0.656 0.0
0.469 0.719 0.0
0.438 0.875 0.0
0.563 0.875 0.0
0.406 0.844 0.0
0.469 0.781 0.0
0.594 0.844 0.0
0.531 0.781 0.0
0.094 0.031 0.0
0.156 0.031 0.0
0.125 0.063 0.0
0.406 0.031 0.0
0.344 0.031 0.0
0.375 0.063 0.0
0.25 0.188 0.0
0.219 0.156 0.0
0.281 0.156 0.0
0.25 0.063 0.0
0.281 0.094 0.0
0.219 0.094 0.0
0.906 0.031 0.0
0.844 0.031 0.0
0.875 0.063 0.0
0.594 0.031 0.0
0.656 0.031 0.0
0.625 0.063 0.0
0.75 0.188 0.0
0.781 0.156 0.0
0.719 0.156 0.0
0.75 0.063 0.0
0.719 0.094 0.0
0.781 0.094 0.0
0.5 0.438 0.0
0.469 0.406 0.0
0.531 0.406 0.0
0.344 0.281 0.0
0.375 0.313 0.0
0.406 0.281 0.0
0.656 0.281 0.0
0.625 0.313 0.0
0.594 0.281 0.0
0.469 0.344 0.0
0.5 0.313 0.0
0.531 0.344 0.0
0.5 0.063 0.0
0.531 0.094 0.0
0.469 0.094 0.0
0.656 0.219 0.0
0.625 0.188 0.0
0.594 0.219 0.0
0.344 0.219 0.0
0.375 0.188 0.0
0.406 0.219 0.0
0.531 0.156 0.0
0.5 0.188 0.0
0.469 0.156 0.0
0.031 0.906 0.0
0.031 0.844 0.0
0.063 0.875 0.0
0.031 0.594 0.0
0.031 0.656 0.0
0.063 0.625 0.0
0.188 0.75 0.0
0.156 0.781 0.0
0.156 0.719 0.0
0.063 0.75 0.0
0.094 0.719 0.0
0.094 0.781 0.0
0.031 0.094 0.0
0.031 0.156 0.0
0.063 0.125 0.0
0.031 0.406 0.0
0.031 0.344 0.0
0.063 0.375 0.0
0.188 0.25 0.0
0.156 0.219 0.0
0.156 0.281 0.0
0.063 0.25 0.0
0.094 0.281 0.0
0.094 0.219 0.0
0.438 0.5 0.0
0.406 0.531 0.0
0.406 0.469 0.0
0.281 0.656 0.0
0.313 0.625 0.0
0.281 0.594 0.0
0.281 0.344 0.0
0.313 0.375 0.0
0.281 0.406 0.0
0.344 0.531 0.0
0.313 0.5 0.0
0.344 0.469 0.0
0.063 0.5 0.0
0.094 0.469 0.0
0.094 0.531 0.0
0.219 0.344 0.0
0.188 0.375 0.0
0.219 0.406 0.0
0.219 0.656 0.0
0.188 0.625 0.0
0.219 0.594 0.0
0.156 0.469 0.0
0.188 0.5 0.0
0.156 0.531 0.0
0.969 0.094 0.0
0.969 0.156 0.0
0.938 0.125 0.0
0.969 0.406 0.0
0.969 0.344 0.0
0.938 0.375 0.0
0.813 0.25 0.0
0.844 0.219 0.0
0.844 0.281 0.0
0.938 0.25 0.0
0.906 0.281 0.0
0.906 0.219 0.0
0.969 0.906 0.0
0.969 0.844 0.0
0.938 0.875 0.0
0.969 0.594 0.0
0.969 0.656 0.0
0.938 0.625 0.0
0.813 0.75 0.0
0.844 0.781 0.0
0.844 0.719 0.0
0.938 0.75 0.0
0.906 0.719 0.0
0.906 0.781 0.0
0.563 0.5 0.0
0.594 0.469 0.0
0.594 0.531 0.0
0.719 0.344 0.0
0.688 0.375 0.0
0.719 0.406 0.0
0.719 0.656 0.0
0.688 0.625 0.0
0.719 0.594 0.0
0.656 0.469 0.0
0.688 0.5 0.0
0.656 0.531 0.0
0.938 0.5 0.0
0.906 0.531 0.0
0.906 0.469 0.0
0.781 0.656 0.0
0.813 0.625 0.0
0.781 0.594 0.0
0.781 0.344 0.0
0.813 0.375 0.0
0.781 0.406 0.0
0.844 0.531 0.0
0.813 0.5 0.0
0.844 0.469 0.0
0.906 0.969 0.0
0.844 0.969 0.0
0.875 0.938 0.0
0.594 0.969 0.0
0.656 0.969 0.0
0.625 0.938 0.0
0.75 0.813 0.0
0.781 0.844 0.0
0.719 0.844 0.0
0.75 0.938 0.0
0.719 0.906 0.0
0.781 0.906 0.0
0.094 0.969 0.0
0.156 0.969 0.0
0.125 0.938 0.0
0.406 0.969 0.0
0.344 0.969 0.0
0.375 0.938 0.0
0.25 0.813 0.0
0.219 0.844 0.0
0.281 0.844 0.0
0.25 0.938 0.0
0.281 0.906 0.0
0.219 0.906 0.0
0.5 0.563 0.0
0.531 0.594 0.0
0.469 0.594 0.0
0.656 0.719 0.0
0.625 0.688 0.0
0.594 0.719 0.0
0.344 0.719 0.0
0.375 0.688 0.0
0.406 0.719 0.0
0.531 0.656 0.0
0.5 0.688 0.0
0.469 0.656 0.0
0.5 0.938 0.0
0.469 0.906 0.0
0.531 0.906 0.0
0.344 0.781 0.0
0.375 0.813 0.0
0.406 0.781 0.0
0.656 0.781 0.0
0.625 0.813 0.0
0.594 0.781 0.0
0.469 0.844 0.0
0.5 0.813 0.0
0.531 0.844 0.0
0.031 0.0 0.0
0.094 0.0 0.0
0.156 0.0 0.0
0.219 0.0 0.0
0.281 0.0 0.0
0.344 0.0 0.0
0.406 0.0 0.0
0.469 0.0 0.0
0.531 0.0 0.0
0.594 0.0 0.0
0.656 0.0 0.0
0.719 0.0 0.0
0.781 0.0 0.0
0.844 0.0 0.0
0.906 0.0 0.0
0.969 0.0 0.0
1.0 0.031 0.0
1.0 0.094 0.0
1.0 0.156 0.0
1.0 0.219 0.0
1.0 0.281 0.0
1.0 0.344 0.0
1.0 0.406 0.0
1.0 0.469 0.0
1.0 0.531 0.0
1.0 0.594 0.0
1.0 0.656 0.0
1.0 0.719 0.0
1.0 0.781 0.0
1.0 0.844 0.0
1.0 0.906 0.0
1.0 0.969 0.0
0.969 1.0 0.0
0.906 1.0 0.0
0.844 1.0 0.0
0.781 1.0 0.0
0.719 1.0 0.0
0.656 1.0 0.0
0.594 1.0 0.0
0.531 1.0 0.0
0.469 1.0 0.0
0.406 1.0 0.0
0.344 1.0 0.0
0.281 1.0 0.0
0.219 1.0 0.0
0.156 1.0 0.0
0.094 1.0 0.0
0.031 1.0 0.0
0.0 0.969 0.0
0.0 0.906 0.0
0.0 0.844 0.0
0.0 0.781 0.0
0.0 0.719 0.0
0.0 0.656 0.0
0.0 0.594 0.0
0.0 0.531 0.0
0.0 0.469 0.0
0.0 0.406 0.0
0.0 0.344 0.0
0.0 0.281 0.0
0.0 0.219 0.0
0.0 0.156 0.0
0.0 0.094 0.0
0.0 0.031 0.0
0.484 0.484 0.0
0.453 0.453 0.0
0.422 0.422 0.0
0.391 0.391 0.0
0.359 0.359 0.0
0.328 0.328 0.0
0.297 0.297 0.0
0.266 0.266 0.0
0.234 0.234 0.0
0.203 0.203 0.0
0.172 0.172 0.0
0.141 0.141 0.0
0.109 0.109 0.0
0.078 0.078 0.0
0.047 0.047 0.0
0.016 0.016 0.0
0.984 0.016 0.0
0.953 0.047 0.0
0.922 0.078 0.0
0.891 0.109 0.0
0.859 0.141 0.0
0.828 0.172 0.0
0.797 0.203 0.0
0.766 0.234 0.0
0.734 0.266 0.0
0.703 0.297 0.0
0.672 0.328 0.0
0.641 0.359 0.0
0.609 0.391 0.0
0.578 0.422 0.0
0.547 0.453 0.0
0.516 0.484 0.0
0.984 0.984 0.0
0.953 0.953 0.0
0.922 0.922 0.0
0.891 0.891 0.0
[...]
POINT_DATA 2113
VECTORS mode double
0.004 -0.006 0.0
0.003 -0.006 0.0
0.003 -0.005 0.0
0.003 -0.005 0.0
-0.032 0.014 0.0
-0.01 -0.012 0.0
-0.01 -0.011 0.0
-0.01 -0.01 0.0
-0.01 -0.011 0.0
-0.023 0.002 0.0
-0.022 0.002 0.0
-0.021 0.003 0.0
-0.021 0.002 0.0
-0.006 -0.011 0.0
-0.006 -0.01 0.0
-0.007 -0.01 0.0
-0.006 -0.009 0.0
-0.006 -0.009 0.0
-0.006 -0.009 0.0
-0.006 -0.009 0.0
-0.006 -0.01 0.0
-0.031 0.011 0.0
-0.01 -0.007 0.0
-0.01 -0.006 0.0
-0.031 0.011 0.0
-0.009 -0.005 0.0
-0.03 0.011 0.0
-0.03 0.011 0.0
-0.009 -0.005 0.0
-0.02 -0.003 0.0
-0.02 -0.002 0.0
-0.029 0.007 0.0
-0.019 -0.002 0.0
-0.019 -0.002 0.0
-0.028 0.007 0.0
-0.019 -0.002 0.0
-0.018 -0.001 0.0
-0.028 0.007 0.0
-0.018 -0.001 0.0
-0.018 -0.001 0.0
-0.027 0.007 0.0
-0.002 -0.009 0.0
-0.009 -0.012 0.0
-0.009 -0.012 0.0
-0.002 -0.008 0.0
-0.002 -0.008 0.0
-0.009 -0.011 0.0
-0.009 -0.01 0.0
-0.002 -0.007 0.0
-0.002 -0.007 0.0
-0.009 -0.01 0.0
-0.009 -0.01 0.0
-0.002 -0.007 0.0
-0.002 -0.008 0.0
-0.009 -0.011 0.0
-0.009 -0.011 0.0
-0.002 -0.009 0.0
-0.033 0.013 0.0
-0.028 0.007 0.0
-0.017 -0.003 0.0
-0.003 -0.008 0.0
-0.003 -0.007 0.0
-0.017 -0.002 0.0
-0.027 0.007 0.0
-0.032 0.014 0.0
-0.003 -0.006 0.0
-0.015 -0.002 0.0
-0.026 0.007 0.0
-0.032 0.013 0.0
-0.032 0.013 0.0
-0.026 0.007 0.0
-0.016 -0.002 0.0
-0.003 -0.007 0.0
-0.016 -0.007 0.0
-0.022 3.766e-04 0.0
-0.016 -0.007 0.0
-0.022 9.324e-04 0.0
-0.028 0.005 0.0
-0.027 0.006 0.0
-0.015 -0.006 0.0
-0.021 8.264e-04 0.0
-0.015 -0.007 0.0
-0.022 5.386e-04 0.0
-0.026 0.006 0.0
-0.027 0.006 0.0
-0.015 -0.006 0.0
-0.022 0.001 0.0
-0.015 -0.006 0.0
-0.021 0.002 0.0
-0.027 0.006 0.0
-0.026 0.006 0.0
-0.014 -0.005 0.0
-0.02 0.002 0.0
-0.015 -0.005 0.0
-0.021 0.001 0.0
-0.026 0.006 0.0
-0.026 0.006 0.0
-0.009 -0.008 0.0
-0.014 -0.007 0.0
-0.016 -0.004 0.0
-0.009 -0.007 0.0
-0.013 -0.007 0.0
-0.016 -0.004 0.0
-0.033 0.013 0.0
-0.031 0.01 0.0
-0.031 0.01 0.0
-0.022 -0.002 0.0
-0.025 0.003 0.0
-0.025 0.002 0.0
-0.008 -0.007 0.0
-0.013 -0.006 0.0
-0.015 -0.004 0.0
-0.009 -0.008 0.0
-0.013 -0.007 0.0
-0.016 -0.004 0.0
-0.032 0.013 0.0
-0.03 0.01 0.0
-0.031 0.01 0.0
-0.021 -0.002 0.0
-0.025 0.003 0.0
-0.024 0.003 0.0
-0.009 -0.007 0.0
-0.013 -0.006 0.0
-0.016 -0.003 0.0
-0.009 -0.006 0.0
-0.013 -0.006 0.0
-0.015 -0.003 0.0
-0.032 0.013 0.0
-0.03 0.01 0.0
-0.03 0.01 0.0
-0.02 -0.001 0.0
-0.024 0.003 0.0
-0.024 0.003 0.0
-0.008 -0.006 0.0
-0.012 -0.005 0.0
-0.015 -0.003 0.0
-0.008 -0.006 0.0
-0.013 -0.006 0.0
-0.015 -0.003 0.0
-0.032 0.013 0.0
-0.029 0.01 0.0
-0.029 0.01 0.0
-0.02 -6.851e-04 0.0
-0.023 0.003 0.0
-0.023 0.003 0.0
9.814e-04 -0.007 0.0
-0.004 -0.01 0.0
-0.008 -0.011 0.0
-0.01 -0.012 0.0
-0.01 -0.012 0.0
-0.008 -0.011 0.0
-0.004 -0.009 0.0
3.462e-04 -0.007 0.0
4.62e-04 -0.007 0.0
-0.005 -0.009 0.0
-0.008 -0.01 0.0
-0.01 -0.011 0.0
-0.01 -0.011 0.0
-0.008 -0.01 0.0
-0.004 -0.008 0.0
1.943e-05 -0.006 0.0
1.517e-04 -0.006 0.0
-0.004 -0.008 0.0
-0.008 -0.009 0.0
-0.01 -0.01 0.0
-0.01 -0.01 0.0
-0.008 -0.01 0.0
-0.004 -0.008 0.0
2.892e-04 -0.006 0.0
4.428e-04 -0.006 0.0
-0.004 -0.009 0.0
-0.007 -0.01 0.0
-0.01 -0.011 0.0
-0.01 -0.011 0.0
-0.008 -0.011 0.0
-0.004 -0.01 0.0
7.816e-04 -0.007 0.0
-0.033 0.014 0.0
-0.032 0.012 0.0
-0.03 0.009 0.0
-0.026 0.004 0.0
-0.02 -8.722e-04 0.0
-0.014 -0.005 0.0
-0.006 -0.007 0.0
6.54e-04 -0.007 0.0
1.916e-04 -0.007 0.0
-0.006 -0.007 0.0
-0.013 -0.004 0.0
-0.02 -1.668e-04 0.0
-0.025 0.005 0.0
-0.03 0.009 0.0
-0.032 0.013 0.0
-0.033 0.014 0.0
-9.14e-05 -0.006 0.0
-0.006 -0.006 0.0
-0.012 -0.004 0.0
-0.018 3.257e-04 0.0
-0.024 0.005 0.0
-0.028 0.009 0.0
-0.031 0.012 0.0
-0.032 0.014 0.0
-0.032 0.014 0.0
-0.031 0.012 0.0
-0.029 0.009 0.0
-0.024 0.004 0.0
-0.019 -1.76e-04 0.0
-0.012 -0.004 0.0
-0.006 -0.006 0.0
1.74e-04 -0.006 0.0
-0.013 -0.01 0.0
-0.018 -0.005 0.0
-0.022 -9.398e-04 0.0
-0.023 0.001 0.0
-0.013 -0.009 0.0
-0.018 -0.004 0.0
-0.021 -4.667e-04 0.0
-0.022 0.002 0.0
-0.026 0.004 0.0
-0.029 0.007 0.0
-0.029 0.007 0.0
-0.025 0.004 0.0
-0.012 -0.009 0.0
-0.017 -0.004 0.0
-0.02 -4.884e-04 0.0
-0.021 0.002 0.0
-0.013 -0.009 0.0
-0.018 -0.004 0.0
-0.021 -7.452e-04 0.0
-0.023 0.001 0.0
-0.024 0.004 0.0
-0.028 0.006 0.0
-0.028 0.006 0.0
-0.026 0.004 0.0
-0.013 -0.008 0.0
-0.017 -0.004 0.0
-0.021 -2.664e-06 0.0
-0.022 0.002 0.0
-0.013 -0.008 0.0
-0.017 -0.003 0.0
-0.02 2.241e-04 0.0
-0.021 0.002 0.0
-0.025 0.004 0.0
-0.028 0.007 0.0
-0.027 0.007 0.0
-0.024 0.005 0.0
-0.012 -0.008 0.0
-0.016 -0.003 0.0
-0.019 4.092e-04 0.0
-0.021 0.002 0.0
-0.012 -0.008 0.0
-0.017 -0.003 0.0
-0.02 1.809e-04 0.0
-0.021 0.002 0.0
-0.023 0.005 0.0
-0.027 0.007 0.0
-0.027 0.007 0.0
-0.024 0.004 0.0
-0.008 -0.009 0.0
-0.01 -0.007 0.0
-0.01 -0.009 0.0
-0.017 -0.005 0.0
-0.013 -0.006 0.0
-0.019 -0.003 0.0
-0.008 -0.008 0.0
-0.01 -0.006 0.0
-0.01 -0.009 0.0
-0.017 -0.005 0.0
-0.013 -0.005 0.0
-0.018 -0.003 0.0
-0.032 0.012 0.0
-0.032 0.012 0.0
-0.031 0.011 0.0
-0.03 0.009 0.0
-0.031 0.011 0.0
-0.03 0.009 0.0
-0.021 -0.002 0.0
-0.021 -0.002 0.0
-0.023 2.137e-04 0.0
-0.027 0.005 0.0
-0.023 -1.35e-04 0.0
-0.027 0.005 0.0
-0.007 -0.008 0.0
-0.009 -0.006 0.0
-0.009 -0.008 0.0
-0.016 -0.004 0.0
-0.012 -0.004 0.0
-0.017 -0.003 0.0
-0.008 -0.009 0.0
-0.01 -0.007 0.0
-0.01 -0.009 0.0
-0.016 -0.005 0.0
-0.013 -0.005 0.0
-0.018 -0.003 0.0
-0.031 0.012 0.0
-0.032 0.012 0.0
-0.03 0.01 0.0
-0.029 0.008 0.0
-0.031 0.011 0.0
-0.03 0.008 0.0
-0.02 -0.002 0.0
-0.02 -0.002 0.0
-0.022 7.17e-05 0.0
-0.027 0.005 0.0
-0.021 2.162e-04 0.0
-0.026 0.005 0.0
-0.008 -0.008 0.0
-0.01 -0.006 0.0
-0.01 -0.008 0.0
-0.016 -0.004 0.0
-0.013 -0.005 0.0
-0.018 -0.002 0.0
-0.008 -0.007 0.0
-0.009 -0.005 0.0
-0.01 -0.008 0.0
-0.016 -0.004 0.0
-0.012 -0.004 0.0
-0.017 -0.002 0.0
-0.032 0.012 0.0
-0.031 0.012 0.0
-0.031 0.011 0.0
-0.029 0.009 0.0
-0.03 0.011 0.0
-0.029 0.009 0.0
-0.02 -0.001 0.0
-0.02 -0.001 0.0
-0.021 9.049e-04 0.0
-0.026 0.005 0.0
-0.022 7.96e-04 0.0
-0.026 0.005 0.0
-0.008 -0.007 0.0
-0.009 -0.005 0.0
-0.009 -0.007 0.0
-0.015 -0.003 0.0
-0.012 -0.004 0.0
-0.017 -0.002 0.0
-0.007 -0.007 0.0
-0.009 -0.006 0.0
-0.009 -0.008 0.0
-0.015 -0.004 0.0
-0.012 -0.004 0.0
-0.017 -0.002 0.0
-0.031 0.012 0.0
-0.031 0.012 0.0
-0.03 0.011 0.0
-0.028 0.009 0.0
-0.03 0.011 0.0
-0.028 0.009 0.0
-0.019 -9.0e-04 0.0
-0.019 -7.233e-04 0.0
-0.021 9.733e-04 0.0
-0.025 0.005 0.0
-0.021 0.001 0.0
-0.025 0.005 0.0
-0.002 -0.008 0.0
-0.005 -0.009 0.0
-0.006 -0.008 0.0
-0.013 -0.01 0.0
-0.011 -0.01 0.0
-0.015 -0.007 0.0
-0.02 -0.001 0.0
-0.017 -0.004 0.0
-0.02 -0.002 0.0
-0.012 -0.008 0.0
-0.015 -0.006 0.0
-0.013 -0.006 0.0
-0.003 -0.007 0.0
-0.005 -0.008 0.0
-0.006 -0.007 0.0
-0.013 -0.009 0.0
-0.012 -0.009 0.0
-0.015 -0.007 0.0
-0.02 -5.829e-04 0.0
-0.017 -0.003 0.0
-0.019 -0.002 0.0
-0.012 -0.007 0.0
-0.015 -0.005 0.0
-0.013 -0.006 0.0
-0.033 0.014 0.0
-0.033 0.013 0.0
-0.033 0.013 0.0
-0.028 0.006 0.0
-0.03 0.009 0.0
-0.03 0.008 0.0
-0.028 0.007 0.0
-0.03 0.009 0.0
-0.029 0.008 0.0
-0.032 0.011 0.0
-0.032 0.01 0.0
-0.032 0.012 0.0
-0.016 -0.007 0.0
-0.019 -0.004 0.0
-0.019 -0.005 0.0
-0.025 0.003 0.0
-0.024 0.002 0.0
-0.027 0.004 0.0
-0.025 0.003 0.0
-0.024 0.002 0.0
-0.027 0.004 0.0
-0.024 4.148e-04 0.0
-0.026 0.003 0.0
-0.024 2.959e-04 0.0
-0.003 -0.007 0.0
-0.005 -0.007 0.0
-0.006 -0.007 0.0
-0.012 -0.009 0.0
-0.011 -0.008 0.0
-0.014 -0.007 0.0
-0.019 -5.89e-04 0.0
-0.016 -0.003 0.0
-0.018 -0.001 0.0
-0.011 -0.007 0.0
-0.014 -0.005 0.0
-0.012 -0.005 0.0
-0.003 -0.008 0.0
-0.005 -0.008 0.0
-0.006 -0.008 0.0
-0.012 -0.009 0.0
-0.011 -0.009 0.0
-0.015 -0.007 0.0
-0.02 -0.001 0.0
-0.017 -0.003 0.0
-0.019 -0.002 0.0
-0.012 -0.007 0.0
-0.015 -0.006 0.0
-0.013 -0.006 0.0
-0.033 0.014 0.0
-0.032 0.013 0.0
-0.033 0.013 0.0
-0.027 0.006 0.0
-0.029 0.009 0.0
-0.028 0.008 0.0
-0.028 0.006 0.0
-0.03 0.009 0.0
-0.029 0.008 0.0
-0.031 0.011 0.0
-0.031 0.01 0.0
-0.032 0.011 0.0
-0.015 -0.007 0.0
-0.018 -0.004 0.0
-0.018 -0.004 0.0
-0.025 0.003 0.0
-0.024 0.002 0.0
-0.026 0.004 0.0
-0.024 0.003 0.0
-0.023 0.002 0.0
-0.026 0.004 0.0
-0.023 4.944e-04 0.0
-0.025 0.003 0.0
-0.023 5.779e-04 0.0
-0.003 -0.007 0.0
-0.006 -0.008 0.0
-0.006 -0.007 0.0
-0.012 -0.008 0.0
-0.011 -0.008 0.0
-0.015 -0.006 0.0
-0.02 -4.467e-04 0.0
-0.016 -0.003 0.0
-0.019 -0.001 0.0
-0.011 -0.007 0.0
-0.015 -0.005 0.0
-0.012 -0.005 0.0
-0.003 -0.007 0.0
-0.005 -0.007 0.0
-0.006 -0.006 0.0
-0.012 -0.008 0.0
-0.011 -0.008 0.0
-0.014 -0.006 0.0
-0.018 8.101e-06 0.0
-0.016 -0.002 0.0
-0.018 -8.434e-04 0.0
-0.011 -0.006 0.0
-0.014 -0.004 0.0
-0.012 -0.005 0.0
-0.033 0.014 0.0
-0.032 0.013 0.0
-0.032 0.013 0.0
-0.027 0.007 0.0
-0.029 0.009 0.0
-0.029 0.008 0.0
-0.026 0.007 0.0
-0.028 0.009 0.0
-0.028 0.008 0.0
-0.031 0.012 0.0
-0.03 0.01 0.0
-0.031 0.012 0.0
-0.016 -0.006 0.0
-0.018 -0.003 0.0
-0.018 -0.004 0.0
-0.023 0.004 0.0
-0.023 0.003 0.0
-0.025 0.005 0.0
-0.024 0.004 0.0
-0.023 0.002 0.0
-0.026 0.005 0.0
-0.022 0.001 0.0
-0.025 0.003 0.0
-0.022 0.001 0.0
-0.003 -0.006 0.0
-0.005 -0.007 0.0
-0.006 -0.006 0.0
-0.012 -0.008 0.0
-0.011 -0.007 0.0
-0.014 -0.005 0.0
-0.018 5.552e-05 0.0
-0.015 -0.002 0.0
-0.018 -6.841e-04 0.0
-0.011 -0.006 0.0
-0.014 -0.004 0.0
-0.012 -0.005 0.0
-0.003 -0.007 0.0
-0.005 -0.007 0.0
-0.006 -0.007 0.0
-0.012 -0.008 0.0
-0.011 -0.008 0.0
-0.014 -0.006 0.0
-0.018 -3.336e-04 0.0
-0.016 -0.002 0.0
-0.018 -0.001 0.0
-0.011 -0.006 0.0
-0.014 -0.004 0.0
-0.012 -0.005 0.0
-0.032 0.014 0.0
-0.032 0.013 0.0
-0.032 0.013 0.0
-0.026 0.007 0.0
-0.028 0.009 0.0
-0.028 0.008 0.0
-0.026 0.007 0.0
-0.028 0.009 0.0
-0.028 0.008 0.0
-0.031 0.011 0.0
-0.03 0.01 0.0
-0.031 0.011 0.0
-0.015 -0.005 0.0
-0.017 -0.003 0.0
-0.017 -0.003 0.0
-0.023 0.004 0.0
-0.022 0.002 0.0
-0.025 0.005 0.0
-0.023 0.004 0.0
-0.022 0.003 0.0
-0.025 0.005 0.0
-0.022 0.001 0.0
-0.024 0.004 0.0
-0.022 0.002 0.0
0.002 -0.007 0.0
-3.714e-04 -0.008 0.0
-0.003 -0.009 0.0
-0.005 -0.01 0.0
-0.007 -0.011 0.0
-0.009 -0.012 0.0
-0.01 -0.012 0.0
-0.01 -0.012 0.0
-0.01 -0.012 0.0
-0.01 -0.012 0.0
-0.009 -0.011 0.0
-0.007 -0.011 0.0
-0.005 -0.01 0.0
-0.003 -0.009 0.0
-9.335e-04 -0.008 0.0
0.002 -0.006 0.0
0.002 -0.006 0.0
-8.552e-04 -0.008 0.0
-0.003 -0.009 0.0
-0.006 -0.009 0.0
-0.007 -0.01 0.0
-0.009 -0.01 0.0
-0.01 -0.011 0.0
-0.01 -0.011 0.0
-0.01 -0.011 0.0
-0.01 -0.01 0.0
-0.009 -0.01 0.0
-0.007 -0.01 0.0
-0.005 -0.009 0.0
-0.003 -0.008 0.0
-0.001 -0.007 0.0
0.001 -0.006 0.0
0.001 -0.006 0.0
-0.001 -0.007 0.0
-0.003 -0.008 0.0
-0.005 -0.008 0.0
-0.007 -0.009 0.0
-0.008 -0.009 0.0
-0.009 -0.01 0.0
-0.01 -0.01 0.0
-0.01 -0.01 0.0
-0.009 -0.01 0.0
-0.008 -0.01 0.0
-0.007 -0.009 0.0
-0.005 -0.009 0.0
-0.003 -0.008 0.0
-9.262e-04 -0.007 0.0
0.002 -0.006 0.0
0.002 -0.006 0.0
-7.651e-04 -0.007 0.0
-0.003 -0.008 0.0
-0.005 -0.009 0.0
-0.007 -0.01 0.0
-0.008 -0.01 0.0
-0.009 -0.011 0.0
-0.01 -0.011 0.0
-0.01 -0.011 0.0
-0.009 -0.011 0.0
-0.009 -0.011 0.0
-0.007 -0.011 0.0
-0.005 -0.01 0.0
-0.003 -0.009 0.0
-5.849e-04 -0.008 0.0
0.002 -0.007 0.0
-0.033 0.014 0.0
-0.033 0.014 0.0
-0.033 0.013 0.0
-0.032 0.012 0.0
-0.031 0.01 0.0
-0.029 0.008 0.0
-0.027 0.005 0.0
-0.024 0.003 0.0
-0.022 3.477e-04 0.0
-0.019 -0.002 0.0
-0.015 -0.004 0.0
-0.012 -0.006 0.0
-0.008 -0.007 0.0
-0.005 -0.008 0.0
-0.001 -0.008 0.0
0.002 -0.007 0.0
0.002 -0.006 0.0
-0.001 -0.007 0.0
-0.005 -0.007 0.0
-0.008 -0.006 0.0
-0.012 -0.005 0.0
-0.015 -0.003 0.0
-0.018 -0.001 0.0
-0.021 0.001 0.0
-0.024 0.003 0.0
-0.026 0.006 0.0
-0.029 0.008 0.0
-0.03 0.01 0.0
-0.031 0.012 0.0
-0.032 0.013 0.0
-0.033 0.014 0.0
-0.032 0.014 0.0
0.001 -0.006 0.0
-0.002 -0.006 0.0
-0.005 -0.006 0.0
-0.008 -0.006 0.0
-0.011 -0.004 0.0
-0.014 -0.003 0.0
-0.017 -7.561e-04 0.0
-0.02 0.001 0.0
-0.022 0.004 0.0
-0.025 0.006 0.0
-0.027 0.008 0.0
-0.029 0.01 0.0
-0.03 0.012 0.0
-0.032 0.013 0.0
-0.032 0.014 0.0
-0.032 0.014 0.0
-0.032 0.014 0.0
-0.032 0.014 0.0
-0.032 0.013 0.0
-0.031 0.011 0.0
-0.029 0.01 0.0
-0.028 0.008 0.0
-0.025 0.006 0.0
-0.023 0.003 0.0
-0.02 9.293e-04 0.0
-0.017 -0.001 0.0
-0.014 -0.003 0.0
-0.011 -0.005 0.0
-0.008 -0.006 0.0
-0.004 -0.007 0.0
-0.001 -0.006 0.0
0.002 -0.006 0.0
-0.012 -0.011 0.0
-0.014 -0.008 0.0
-0.017 -0.006 0.0
-0.019 -0.004 0.0
-0.021 -0.002 0.0
-0.022 -2.501e-04 0.0
-0.023 8.541e-04 0.0
-0.023 0.001 0.0
-0.012 -0.011 0.0
-0.014 -0.008 0.0
-0.017 -0.006 0.0
-0.019 -0.003 0.0
-0.02 -0.001 0.0
-0.022 2.612e-04 0.0
-0.022 0.001 0.0
-0.022 0.002 0.0
-0.024 0.003 0.0
-0.027 0.005 0.0
-0.029 0.006 0.0
-0.029 0.007 0.0
-0.029 0.007 0.0
-0.028 0.006 0.0
-0.027 0.005 0.0
-0.024 0.003 0.0
-0.011 -0.01 0.0
-0.014 -0.008 0.0
-0.016 -0.005 0.0
-0.018 -0.003 0.0
-0.019 -0.001 0.0
-0.021 2.064e-04 0.0
-0.021 0.001 0.0
-0.021 0.002 0.0
-0.011 -0.01 0.0
-0.014 -0.008 0.0
-0.017 -0.006 0.0
-0.019 -0.003 0.0
-0.02 -0.002 0.0
-0.022 -7.551e-05 0.0
-0.023 0.001 0.0
-0.023 0.002 0.0
-0.023 0.003 0.0
-0.025 0.005 0.0
-0.027 0.006 0.0
-0.028 0.007 0.0
-0.028 0.007 0.0
-0.028 0.006 0.0
-0.027 0.005 0.0
-0.024 0.003 0.0
-0.011 -0.01 0.0
-0.014 -0.007 0.0
-0.016 -0.005 0.0
-0.018 -0.003 0.0
-0.02 -7.711e-04 0.0
-0.021 6.278e-04 0.0
-0.022 0.002 0.0
-0.022 0.002 0.0
-0.011 -0.01 0.0
-0.014 -0.007 0.0
-0.016 -0.005 0.0
-0.018 -0.002 0.0
-0.019 -5.713e-04 0.0
-0.02 8.985e-04 0.0
-0.021 0.002 0.0
-0.021 0.003 0.0
-0.024 0.003 0.0
-0.026 0.005 0.0
-0.027 0.007 0.0
-0.028 0.007 0.0
-0.027 0.007 0.0
-0.027 0.007 0.0
-0.025 0.005 0.0
-0.022 0.004 0.0
-0.011 -0.009 0.0
-0.014 -0.006 0.0
-0.016 -0.004 0.0
-0.017 -0.002 0.0
-0.019 -3.262e-04 0.0
-0.02 0.001 0.0
-0.021 0.002 0.0
-0.021 0.002 0.0
-0.011 -0.009 0.0
-0.014 -0.006 0.0
-0.016 -0.004 0.0
-0.017 -0.002 0.0
-0.019 -5.456e-04 0.0
-0.02 7.841e-04 0.0
-0.021 0.002 0.0
-0.021 0.002 0.0
-0.022 0.004 0.0
-0.025 0.005 0.0
-0.026 0.007 0.0
-0.027 0.007 0.0
-0.027 0.007 0.0
-0.026 0.006 0.0
-0.025 0.005 0.0
-0.023 0.003 0.0
-0.007 -0.01 0.0
-0.008 -0.008 0.0
-0.009 -0.007 0.0
-0.01 -0.007 0.0
-0.008 -0.01 0.0
-0.012 -0.009 0.0
-0.015 -0.006 0.0
-0.018 -0.004 0.0
-0.012 -0.006 0.0
-0.015 -0.005 0.0
-0.018 -0.004 0.0
-0.019 -0.003 0.0
-0.007 -0.009 0.0
-0.009 -0.008 0.0
-0.009 -0.007 0.0
-0.01 -0.006 0.0
-0.008 -0.01 0.0
-0.012 -0.008 0.0
-0.015 -0.006 0.0
-0.018 -0.004 0.0
-0.012 -0.005 0.0
-0.015 -0.004 0.0
-0.017 -0.003 0.0
-0.019 -0.003 0.0
-0.032 0.012 0.0
-0.033 0.013 0.0
-0.033 0.013 0.0
-0.032 0.012 0.0
-0.032 0.011 0.0
-0.031 0.01 0.0
-0.031 0.009 0.0
-0.03 0.008 0.0
-0.031 0.011 0.0
-0.031 0.01 0.0
-0.031 0.009 0.0
-0.03 0.008 0.0
-0.02 -0.002 0.0
-0.021 -0.002 0.0
-0.021 -0.002 0.0
-0.02 -0.002 0.0
-0.021 -0.001 0.0
-0.024 0.001 0.0
-0.026 0.004 0.0
-0.028 0.006 0.0
-0.021 -0.001 0.0
-0.024 0.001 0.0
-0.027 0.004 0.0
-0.028 0.006 0.0
-0.007 -0.009 0.0
-0.008 -0.007 0.0
-0.009 -0.006 0.0
-0.009 -0.006 0.0
-0.008 -0.009 0.0
-0.011 -0.007 0.0
-0.014 -0.006 0.0
-0.017 -0.003 0.0
-0.011 -0.005 0.0
-0.014 -0.004 0.0
-0.016 -0.003 0.0
-0.018 -0.002 0.0
-0.007 -0.01 0.0
-0.008 -0.008 0.0
-0.01 -0.007 0.0
-0.01 -0.007 0.0
-0.008 -0.01 0.0
-0.012 -0.008 0.0
-0.015 -0.006 0.0
-0.018 -0.004 0.0
-0.012 -0.006 0.0
-0.015 -0.005 0.0
-0.017 -0.004 0.0
-0.019 -0.003 0.0
-0.031 0.011 0.0
-0.032 0.012 0.0
-0.033 0.012 0.0
-0.032 0.012 0.0
-0.03 0.011 0.0
-0.03 0.01 0.0
-0.03 0.009 0.0
-0.029 0.008 0.0
-0.032 0.011 0.0
-0.031 0.01 0.0
-0.03 0.009 0.0
-0.029 0.008 0.0
-0.02 -0.002 0.0
-0.021 -0.002 0.0
-0.02 -0.002 0.0
-0.019 -0.002 0.0
-0.021 -0.001 0.0
-0.024 0.001 0.0
-0.026 0.004 0.0
-0.028 0.006 0.0
-0.02 -0.001 0.0
-0.023 0.001 0.0
-0.025 0.004 0.0
-0.027 0.006 0.0
-0.007 -0.009 0.0
-0.008 -0.007 0.0
-0.009 -0.006 0.0
-0.01 -0.006 0.0
-0.008 -0.009 0.0
-0.012 -0.007 0.0
-0.015 -0.005 0.0
-0.018 -0.003 0.0
-0.011 -0.005 0.0
-0.015 -0.004 0.0
-0.017 -0.003 0.0
-0.019 -0.002 0.0
-0.007 -0.008 0.0
-0.008 -0.007 0.0
-0.009 -0.006 0.0
-0.009 -0.005 0.0
-0.008 -0.009 0.0
-0.011 -0.007 0.0
-0.014 -0.005 0.0
-0.017 -0.003 0.0
-0.011 -0.004 0.0
-0.014 -0.003 0.0
-0.016 -0.003 0.0
-0.018 -0.002 0.0
-0.031 0.012 0.0
-0.032 0.013 0.0
-0.032 0.013 0.0
-0.031 0.012 0.0
-0.031 0.011 0.0
-0.031 0.01 0.0
-0.03 0.01 0.0
-0.029 0.008 0.0
-0.03 0.011 0.0
-0.03 0.011 0.0
-0.029 0.01 0.0
-0.028 0.008 0.0
-0.019 -0.001 0.0
-0.02 -0.001 0.0
-0.02 -0.001 0.0
-0.02 -0.001 0.0
-0.02 -2.853e-04 0.0
-0.023 0.002 0.0
-0.025 0.004 0.0
-0.027 0.006 0.0
-0.02 -4.347e-04 0.0
-0.023 0.002 0.0
-0.025 0.004 0.0
-0.027 0.006 0.0
-0.007 -0.008 0.0
-0.008 -0.007 0.0
-0.009 -0.006 0.0
-0.009 -0.005 0.0
-0.008 -0.008 0.0
-0.011 -0.006 0.0
-0.014 -0.004 0.0
-0.017 -0.002 0.0
-0.011 -0.004 0.0
-0.014 -0.003 0.0
-0.016 -0.002 0.0
-0.018 -0.001 0.0
-0.007 -0.008 0.0
-0.008 -0.007 0.0
-0.009 -0.006 0.0
-0.009 -0.005 0.0
-0.008 -0.008 0.0
-0.011 -0.007 0.0
-0.014 -0.005 0.0
-0.017 -0.003 0.0
-0.011 -0.005 0.0
-0.014 -0.004 0.0
-0.016 -0.003 0.0
-0.018 -0.002 0.0
-0.03 0.012 0.0
-0.031 0.012 0.0
-0.032 0.012 0.0
-0.031 0.011 0.0
-0.03 0.011 0.0
-0.03 0.01 0.0
-0.029 0.01 0.0
-0.028 0.008 0.0
-0.03 0.011 0.0
-0.03 0.01 0.0
-0.029 0.009 0.0
-0.028 0.008 0.0
-0.019 -0.001 0.0
-0.02 -7.677e-04 0.0
-0.02 -6.677e-04 0.0
-0.019 -8.883e-04 0.0
-0.02 -2.03e-04 0.0
-0.022 0.002 0.0
-0.024 0.004 0.0
-0.026 0.006 0.0
-0.019 9.017e-06 0.0
-0.022 0.002 0.0
-0.024 0.004 0.0
-0.026 0.006 0.0
-0.002 -0.008 0.0
-0.003 -0.008 0.0
-0.004 -0.009 0.0
-0.007 -0.008 0.0
-0.004 -0.008 0.0
-0.008 -0.008 0.0
-0.011 -0.011 0.0
-0.014 -0.008 0.0
-0.01 -0.011 0.0
-0.013 -0.009 0.0
-0.015 -0.007 0.0
-0.014 -0.007 0.0
-0.019 -0.002 0.0
-0.021 -4.184e-04 0.0
-0.017 -0.003 0.0
-0.017 -0.004 0.0
-0.021 -9.321e-04 0.0
-0.018 -0.003 0.0
-0.013 -0.008 0.0
-0.01 -0.008 0.0
-0.015 -0.007 0.0
-0.016 -0.005 0.0
-0.011 -0.007 0.0
-0.015 -0.006 0.0
-0.003 -0.008 0.0
-0.003 -0.007 0.0
-0.004 -0.008 0.0
-0.007 -0.008 0.0
-0.005 -0.007 0.0
-0.008 -0.007 0.0
-0.011 -0.011 0.0
-0.014 -0.008 0.0
-0.01 -0.01 0.0
-0.013 -0.008 0.0
-0.015 -0.007 0.0
-0.014 -0.007 0.0
-0.018 -0.001 0.0
-0.021 2.108e-04 0.0
-0.017 -0.003 0.0
-0.016 -0.003 0.0
-0.021 -3.467e-04 0.0
-0.018 -0.003 0.0
-0.013 -0.007 0.0
-0.01 -0.007 0.0
-0.014 -0.006 0.0
-0.016 -0.004 0.0
-0.011 -0.006 0.0
-0.014 -0.005 0.0
-0.033 0.014 0.0
-0.033 0.014 0.0
-0.033 0.013 0.0
-0.033 0.013 0.0
-0.033 0.014 0.0
-0.033 0.013 0.0
-0.028 0.006 0.0
-0.028 0.006 0.0
-0.029 0.008 0.0
-0.031 0.009 0.0
-0.029 0.007 0.0
-0.031 0.009 0.0
-0.028 0.007 0.0
-0.028 0.006 0.0
-0.029 0.008 0.0
-0.031 0.01 0.0
-0.029 0.007 0.0
-0.03 0.009 0.0
-0.032 0.011 0.0
-0.033 0.012 0.0
-0.032 0.01 0.0
-0.032 0.01 0.0
-0.033 0.012 0.0
-0.032 0.011 0.0
-0.016 -0.007 0.0
-0.016 -0.007 0.0
-0.017 -0.006 0.0
-0.02 -0.003 0.0
-0.017 -0.006 0.0
-0.02 -0.003 0.0
-0.024 0.002 0.0
-0.026 0.005 0.0
-0.023 0.002 0.0
-0.025 0.002 0.0
-0.027 0.005 0.0
-0.026 0.004 0.0
-0.024 0.002 0.0
-0.027 0.004 0.0
-0.024 0.001 0.0
-0.025 0.002 0.0
-0.028 0.005 0.0
-0.026 0.003 0.0
-0.025 0.002 0.0
-0.023 -8.209e-04 0.0
-0.026 0.003 0.0
-0.026 0.003 0.0
-0.023 -8.827e-04 0.0
-0.025 0.001 0.0
-0.002 -0.007 0.0
-0.003 -0.007 0.0
-0.004 -0.008 0.0
-0.007 -0.007 0.0
-0.004 -0.007 0.0
-0.007 -0.007 0.0
-0.01 -0.01 0.0
-0.013 -0.008 0.0
-0.01 -0.01 0.0
-0.012 -0.007 0.0
-0.015 -0.007 0.0
-0.013 -0.007 0.0
-0.017 -0.001 0.0
-0.02 1.448e-04 0.0
-0.016 -0.002 0.0
-0.015 -0.003 0.0
-0.02 -3.601e-04 0.0
-0.017 -0.003 0.0
-0.012 -0.007 0.0
-0.01 -0.007 0.0
-0.013 -0.006 0.0
-0.015 -0.004 0.0
-0.01 -0.006 0.0
-0.013 -0.004 0.0
-0.002 -0.008 0.0
-0.003 -0.008 0.0
-0.004 -0.009 0.0
-0.007 -0.008 0.0
-0.005 -0.008 0.0
-0.008 -0.008 0.0
-0.011 -0.01 0.0
-0.014 -0.008 0.0
-0.01 -0.01 0.0
-0.012 -0.008 0.0
-0.015 -0.007 0.0
-0.014 -0.007 0.0
-0.019 -0.002 0.0
-0.021 -2.625e-04 0.0
-0.017 -0.003 0.0
-0.017 -0.004 0.0
-0.021 -7.534e-04 0.0
-0.018 -0.003 0.0
-0.013 -0.007 0.0
-0.01 -0.008 0.0
-0.014 -0.006 0.0
-0.016 -0.005 0.0
-0.011 -0.007 0.0
-0.015 -0.005 0.0
-0.033 0.014 0.0
-0.033 0.014 0.0
-0.032 0.013 0.0
-0.033 0.013 0.0
-0.033 0.013 0.0
-0.033 0.013 0.0
-0.027 0.007 0.0
-0.027 0.006 0.0
-0.028 0.008 0.0
-0.03 0.009 0.0
-0.028 0.007 0.0
-0.029 0.009 0.0
-0.028 0.007 0.0
-0.028 0.006 0.0
-0.029 0.008 0.0
-0.031 0.009 0.0
-0.029 0.007 0.0
-0.03 0.009 0.0
-0.031 0.011 0.0
-0.032 0.012 0.0
-0.031 0.01 0.0
-0.031 0.01 0.0
-0.032 0.012 0.0