# vtk DataFile Version 3.0

ASCII
DATASET UNSTRUCTURED_GRID
POINTS 432 float
0.0 0.0 0.0
1.0 0.0 0.0
1.0 1.0 0.0
0.0 1.0 0.0
0.375 0.375 0.0
0.375 0.625 0.0
0.625 0.625 0.0
0.625 0.375 0.0
0.5 0.0 0.0
1.0 0.5 0.0
0.5 1.0 0.0
0.0 0.5 0.0
0.25 0.0 0.0
0.75 0.0 0.0
1.0 0.25 0.0
1.0 0.75 0.0
0.75 1.0 0.0
0.25 1.0 0.0
0.0 0.75 0.0
0.0 0.25 0.0
0.5 0.375 0.0
0.625 0.5 0.0
0.5 0.625 0.0
0.375 0.5 0.0
0.188 0.188 0.0
0.813 0.188 0.0
0.813 0.813 0.0
0.188 0.813 0.0
0.438 0.188 0.0
0.188 0.438 0.0
0.438 0.813 0.0
0.188 0.563 0.0
0.813 0.563 0.0
0.563 0.813 0.0
0.563 0.188 0.0
0.813 0.438 0.0
0.125 0.0 0.0
0.375 0.0 0.0
0.625 0.0 0.0
0.875 0.0 0.0
1.0 0.125 0.0
1.0 0.375 0.0
1.0 0.625 0.0
1.0 0.875 0.0
0.875 1.0 0.0
0.625 1.0 0.0
0.375 1.0 0.0
0.125 1.0 0.0
0.0 0.875 0.0
0.0 0.625 0.0
0.0 0.375 0.0
0.0 0.125 0.0
0.438 0.375 0.0
0.563 0.375 0.0
0.625 0.438 0.0
0.625 0.563 0.0
0.563 0.625 0.0
0.438 0.625 0.0
0.375 0.563 0.0
0.375 0.438 0.0
0.281 0.281 0.0
0.094 0.094 0.0
0.906 0.094 0.0
0.719 0.281 0.0
0.906 0.906 0.0
0.719 0.719 0.0
0.094 0.906 0.0
0.281 0.719 0.0
0.406 0.281 0.0
0.469 0.094 0.0
0.094 0.469 0.0
0.281 0.406 0.0
0.469 0.906 0.0
0.406 0.719 0.0
0.281 0.594 0.0
0.094 0.531 0.0
0.906 0.531 0.0
0.719 0.594 0.0
0.594 0.719 0.0
0.531 0.906 0.0
0.531 0.094 0.0
0.594 0.281 0.0
0.719 0.406 0.0
0.906 0.469 0.0
0.281 0.469 0.0
0.281 0.531 0.0
0.188 0.5 0.0
0.531 0.719 0.0
0.5 0.813 0.0
0.469 0.719 0.0
0.5 0.188 0.0
0.531 0.281 0.0
0.469 0.281 0.0
0.719 0.469 0.0
0.813 0.5 0.0
0.719 0.531 0.0
0.344 0.094 0.0
0.313 0.188 0.0
0.219 0.094 0.0
0.094 0.219 0.0
0.188 0.313 0.0
0.094 0.344 0.0
0.656 0.094 0.0
0.781 0.094 0.0
0.688 0.188 0.0
0.906 0.219 0.0
0.906 0.344 0.0
0.813 0.313 0.0
0.906 0.656 0.0
0.906 0.781 0.0
0.813 0.688 0.0
0.688 0.813 0.0
0.781 0.906 0.0
0.656 0.906 0.0
0.313 0.813 0.0
0.344 0.906 0.0
0.219 0.906 0.0
0.094 0.656 0.0
0.188 0.688 0.0
0.094 0.781 0.0
0.063 0.0 0.0
0.188 0.0 0.0
0.313 0.0 0.0
0.438 0.0 0.0
0.563 0.0 0.0
0.688 0.0 0.0
0.813 0.0 0.0
0.938 0.0 0.0
1.0 0.063 0.0
1.0 0.188 0.0
1.0 0.313 0.0
1.0 0.438 0.0
1.0 0.563 0.0
1.0 0.688 0.0
1.0 0.813 0.0
1.0 0.938 0.0
0.938 1.0 0.0
0.813 1.0 0.0
0.688 1.0 0.0
0.563 1.0 0.0
0.438 1.0 0.0
0.313 1.0 0.0
0.188 1.0 0.0
0.063 1.0 0.0
0.0 0.938 0.0
0.0 0.813 0.0
0.0 0.688 0.0
0.0 0.563 0.0
0.0 0.438 0.0
0.0 0.313 0.0
0.0 0.188 0.0
0.0 0.063 0.0
0.406 0.375 0.0
0.469 0.375 0.0
0.531 0.375 0.0
0.594 0.375 0.0
0.625 0.406 0.0
0.625 0.469 0.0
0.625 0.531 0.0
0.625 0.594 0.0
0.594 0.625 0.0
0.531 0.625 0.0
0.469 0.625 0.0
0.406 0.625 0.0
0.375 0.594 0.0
0.375 0.531 0.0
0.375 0.469 0.0
0.375 0.406 0.0
0.328 0.328 0.0
0.234 0.234 0.0
0.141 0.141 0.0
0.047 0.047 0.0
0.953 0.047 0.0
0.859 0.141 0.0
0.766 0.234 0.0
0.672 0.328 0.0
0.953 0.953 0.0
0.859 0.859 0.0
0.766 0.766 0.0
0.672 0.672 0.0
0.047 0.953 0.0
0.141 0.859 0.0
0.234 0.766 0.0
0.328 0.672 0.0
0.391 0.328 0.0
0.422 0.234 0.0
0.453 0.141 0.0
0.484 0.047 0.0
0.047 0.484 0.0
0.141 0.453 0.0
0.234 0.422 0.0
0.328 0.391 0.0
0.484 0.953 0.0
0.453 0.859 0.0
0.422 0.766 0.0
0.391 0.672 0.0
0.328 0.609 0.0
0.234 0.578 0.0
0.141 0.547 0.0
0.047 0.516 0.0
0.953 0.516 0.0
0.859 0.547 0.0
0.766 0.578 0.0
0.672 0.609 0.0
0.609 0.672 0.0
0.578 0.766 0.0
0.547 0.859 0.0
0.516 0.953 0.0
0.516 0.047 0.0
0.547 0.141 0.0
0.578 0.234 0.0
0.609 0.328 0.0
0.672 0.391 0.0
0.766 0.422 0.0
0.859 0.453 0.0
0.953 0.484 0.0
0.328 0.484 0.0
0.234 0.453 0.0
0.328 0.516 0.0
0.234 0.547 0.0
0.188 0.469 0.0
0.188 0.531 0.0
0.547 0.766 0.0
0.516 0.672 0.0
0.531 0.813 0.0
0.469 0.813 0.0
0.484 0.672 0.0
0.453 0.766 0.0
0.531 0.188 0.0
0.469 0.188 0.0
0.547 0.234 0.0
0.516 0.328 0.0
0.453 0.234 0.0
0.484 0.328 0.0
0.766 0.453 0.0
0.672 0.484 0.0
0.813 0.469 0.0
0.813 0.531 0.0
0.672 0.516 0.0
0.766 0.547 0.0
0.391 0.141 0.0
0.297 0.047 0.0
0.375 0.188 0.0
0.25 0.188 0.0
0.234 0.047 0.0
0.203 0.141 0.0
0.141 0.203 0.0
0.047 0.234 0.0
0.188 0.25 0.0
0.188 0.375 0.0
0.047 0.297 0.0
0.141 0.391 0.0
0.703 0.047 0.0
0.609 0.141 0.0
0.766 0.047 0.0
0.797 0.141 0.0
0.625 0.188 0.0
0.75 0.188 0.0
0.953 0.234 0.0
0.859 0.203 0.0
0.953 0.297 0.0
0.859 0.391 0.0
0.813 0.25 0.0
0.813 0.375 0.0
0.953 0.703 0.0
0.859 0.609 0.0
0.953 0.766 0.0
0.859 0.797 0.0
0.813 0.625 0.0
0.813 0.75 0.0
0.75 0.813 0.0
0.625 0.813 0.0
0.797 0.859 0.0
0.766 0.953 0.0
0.609 0.859 0.0
0.703 0.953 0.0
0.375 0.813 0.0
0.25 0.813 0.0
0.391 0.859 0.0
0.297 0.953 0.0
0.203 0.859 0.0
0.234 0.953 0.0
0.141 0.609 0.0
0.047 0.703 0.0
0.188 0.625 0.0
0.188 0.75 0.0
0.047 0.766 0.0
0.141 0.797 0.0
0.328 0.422 0.0
0.328 0.453 0.0
0.281 0.438 0.0
0.328 0.578 0.0
0.328 0.547 0.0
0.281 0.563 0.0
0.094 0.5 0.0
0.141 0.484 0.0
0.141 0.516 0.0
0.281 0.5 0.0
0.234 0.516 0.0
0.234 0.484 0.0
0.578 0.672 0.0
0.563 0.719 0.0
0.547 0.672 0.0
0.5 0.906 0.0
0.516 0.859 0.0
0.484 0.859 0.0
0.422 0.672 0.0
0.453 0.672 0.0
0.438 0.719 0.0
0.516 0.766 0.0
0.484 0.766 0.0
0.5 0.719 0.0
0.5 0.094 0.0
0.516 0.141 0.0
0.484 0.141 0.0
0.578 0.328 0.0
0.563 0.281 0.0
0.547 0.328 0.0
0.422 0.328 0.0
0.438 0.281 0.0
0.453 0.328 0.0
0.516 0.234 0.0
0.5 0.281 0.0
0.484 0.234 0.0
0.672 0.422 0.0
0.719 0.438 0.0
0.672 0.453 0.0
0.906 0.5 0.0
0.859 0.484 0.0
0.859 0.516 0.0
0.672 0.578 0.0
0.672 0.547 0.0
0.719 0.563 0.0
0.766 0.484 0.0
0.766 0.516 0.0
0.719 0.5 0.0
0.422 0.047 0.0
0.406 0.094 0.0
0.359 0.047 0.0
0.344 0.281 0.0
0.359 0.234 0.0
0.297 0.234 0.0
0.109 0.047 0.0
0.172 0.047 0.0
0.156 0.094 0.0
0.328 0.141 0.0
0.266 0.141 0.0
0.281 0.094 0.0
0.047 0.109 0.0
0.094 0.156 0.0
0.047 0.172 0.0
0.281 0.344 0.0
0.234 0.297 0.0
0.234 0.359 0.0
0.047 0.422 0.0
0.047 0.359 0.0
0.094 0.406 0.0
0.141 0.266 0.0
0.141 0.328 0.0
0.094 0.281 0.0
0.578 0.047 0.0
0.641 0.047 0.0
0.594 0.094 0.0
0.891 0.047 0.0
0.828 0.047 0.0
0.844 0.094 0.0
0.656 0.281 0.0
0.641 0.234 0.0
0.703 0.234 0.0
0.719 0.094 0.0
0.734 0.141 0.0
0.672 0.141 0.0
0.953 0.109 0.0
0.953 0.172 0.0
0.906 0.156 0.0
0.953 0.422 0.0
0.953 0.359 0.0
0.906 0.406 0.0
0.719 0.344 0.0
0.766 0.297 0.0
0.766 0.359 0.0
0.906 0.281 0.0
0.859 0.328 0.0
0.859 0.266 0.0
0.953 0.578 0.0
0.953 0.641 0.0
0.906 0.594 0.0
0.953 0.891 0.0
0.953 0.828 0.0
0.906 0.844 0.0
0.719 0.656 0.0
0.766 0.641 0.0
0.766 0.703 0.0
0.906 0.719 0.0
0.859 0.734 0.0
0.859 0.672 0.0
0.656 0.719 0.0
0.703 0.766 0.0
0.641 0.766 0.0
0.891 0.953 0.0
0.844 0.906 0.0
0.828 0.953 0.0
0.578 0.953 0.0
0.594 0.906 0.0
0.641 0.953 0.0
0.734 0.859 0.0
0.719 0.906 0.0
0.672 0.859 0.0
0.344 0.719 0.0
0.359 0.766 0.0
0.297 0.766 0.0
0.422 0.953 0.0
0.406 0.906 0.0
0.359 0.953 0.0
0.109 0.953 0.0
0.156 0.906 0.0
0.172 0.953 0.0
0.328 0.859 0.0
0.281 0.906 0.0
0.266 0.859 0.0
0.047 0.578 0.0
0.094 0.594 0.0
0.047 0.641 0.0
0.281 0.656 0.0
0.234 0.641 0.0
0.234 0.703 0.0
0.047 0.891 0.0
0.047 0.828 0.0
0.094 0.844 0.0
0.141 0.672 0.0
0.141 0.734 0.0
0.094 0.719 0.0
CELLS 768 3072
3 4 167 191
3 59 167 288
3 71 191 288
3 167 288 191
3 23 166 216
3 59 166 289
3 84 216 289
3 166 289 216
3 29 190 217
3 71 190 290
3 84 217 290
3 190 290 217
3 59 289 288
3 84 289 290
3 71 288 290
3 289 290 288
3 5 164 196
3 58 164 291
3 74 196 291
3 164 291 196
3 23 165 218
3 58 165 292
3 85 218 292
3 165 292 218
3 31 197 219
3 74 197 293
3 85 219 293
3 197 293 219
3 58 292 291
3 85 292 293
3 74 291 293
3 292 293 291
3 11 188 199
3 70 188 294
3 75 199 294
3 188 294 199
3 29 189 220
3 70 189 295
3 86 220 295
3 189 295 220
3 31 198 221
3 75 198 296
3 86 221 296
3 198 296 221
3 70 295 294
3 86 295 296
3 75 294 296
3 295 296 294
3 23 218 216
3 85 218 297
3 84 216 297
3 218 297 216
3 31 219 221
3 85 219 298
3 86 221 298
3 219 298 221
3 29 217 220
3 84 217 299
3 86 220 299
3 217 299 220
3 85 298 297
3 86 298 299
3 84 297 299
3 298 299 297
3 6 204 160
3 78 204 300
3 56 160 300
3 204 300 160
3 33 205 222
3 78 205 301
3 87 222 301
3 205 301 222
3 22 161 223
3 56 161 302
3 87 223 302
3 161 302 223
3 78 301 300
3 87 301 302
3 56 300 302
3 301 302 300
3 10 207 192
3 79 207 303
3 72 192 303
3 207 303 192
3 33 206 224
3 79 206 304
3 88 224 304
3 206 304 224
3 30 193 225
3 72 193 305
3 88 225 305
3 193 305 225
3 79 304 303
3 88 304 305
3 72 303 305
3 304 305 303
3 5 163 195
3 57 163 306
3 73 195 306
3 163 306 195
3 22 162 226
3 57 162 307
3 89 226 307
3 162 307 226
3 30 194 227
3 73 194 308
3 89 227 308
3 194 308 227
3 57 307 306
3 89 307 308
3 73 306 308
3 307 308 306
3 33 224 222
3 88 224 309
3 87 222 309
3 224 309 222
3 30 225 227
3 88 225 310
3 89 227 310
3 225 310 227
3 22 223 226
3 87 223 311
3 89 226 311
3 223 311 226
3 88 310 309
3 89 310 311
3 87 309 311
3 310 311 309
3 8 208 187
3 80 208 312
3 69 187 312
3 208 312 187
3 34 209 228
3 80 209 313
3 90 228 313
3 209 313 228
3 28 186 229
3 69 186 314
3 90 229 314
3 186 314 229
3 80 313 312
3 90 313 314
3 69 312 314
3 313 314 312
3 7 211 155
3 81 211 315
3 53 155 315
3 211 315 155
3 34 210 230
3 81 210 316
3 91 230 316
3 210 316 230
3 20 154 231
3 53 154 317
3 91 231 317
3 154 317 231
3 81 316 315
3 91 316 317
3 53 315 317
3 316 317 315
3 4 184 152
3 68 184 318
3 52 152 318
3 184 318 152
3 28 185 232
3 68 185 319
3 92 232 319
3 185 319 232
3 20 153 233
3 52 153 320
3 92 233 320
3 153 320 233
3 68 319 318
3 92 319 320
3 52 318 320
3 319 320 318
3 34 230 228
3 91 230 321
3 90 228 321
3 230 321 228
3 20 231 233
3 91 231 322
3 92 233 322
3 231 322 233
3 28 229 232
3 90 229 323
3 92 232 323
3 229 323 232
3 91 322 321
3 92 322 323
3 90 321 323
3 322 323 321
3 7 212 156
3 82 212 324
3 54 156 324
3 212 324 156
3 35 213 234
3 82 213 325
3 93 234 325
3 213 325 234
3 21 157 235
3 54 157 326
3 93 235 326
3 157 326 235
3 82 325 324
3 93 325 326
3 54 324 326
3 325 326 324
3 9 215 200
3 83 215 327
3 76 200 327
3 215 327 200
3 35 214 236
3 83 214 328
3 94 236 328
3 214 328 236
3 32 201 237
3 76 201 329
3 94 237 329
3 201 329 237
3 83 328 327
3 94 328 329
3 76 327 329
3 328 329 327
3 6 159 203
3 55 159 330
3 77 203 330
3 159 330 203
3 21 158 238
3 55 158 331
3 95 238 331
3 158 331 238
3 32 202 239
3 77 202 332
3 95 239 332
3 202 332 239
3 55 331 330
3 95 331 332
3 77 330 332
3 331 332 330
3 35 236 234
3 94 236 333
3 93 234 333
3 236 333 234
3 32 237 239
3 94 237 334
3 95 239 334
3 237 334 239
3 21 235 238
3 93 235 335
3 95 238 335
3 235 335 238
3 94 334 333
3 95 334 335
3 93 333 335
3 334 335 333
3 8 187 123
3 69 187 336
3 37 123 336
3 187 336 123
3 28 186 240
3 69 186 337
3 96 240 337
3 186 337 240
3 12 122 241
3 37 122 338
3 96 241 338
3 122 338 241
3 69 337 336
3 96 337 338
3 37 336 338
3 337 338 336
3 4 184 168
3 68 184 339
3 60 168 339
3 184 339 168
3 28 185 242
3 68 185 340
3 97 242 340
3 185 340 242
3 24 169 243
3 60 169 341
3 97 243 341
3 169 341 243
3 68 340 339
3 97 340 341
3 60 339 341
3 340 341 339
3 0 120 171
3 36 120 342
3 61 171 342
3 120 342 171
3 12 121 244
3 36 121 343
3 98 244 343
3 121 343 244
3 24 170 245
3 61 170 344
3 98 245 344
3 170 344 245
3 36 343 342
3 98 343 344
3 61 342 344
3 343 344 342
3 28 242 240
3 97 242 345
3 96 240 345
3 242 345 240
3 24 243 245
3 97 243 346
3 98 245 346
3 243 346 245
3 12 241 244
3 96 241 347
3 98 244 347
3 241 347 244
3 97 346 345
3 98 346 347
3 96 345 347
3 346 347 345
3 0 171 151
3 61 171 348
3 51 151 348
3 171 348 151
3 24 170 246
3 61 170 349
3 99 246 349
3 170 349 246
3 19 150 247
3 51 150 350
3 99 247 350
3 150 350 247
3 61 349 348
3 99 349 350
3 51 348 350
3 349 350 348
3 4 168 191
3 60 168 351
3 71 191 351
3 168 351 191
3 24 169 248
3 60 169 352
3 100 248 352
3 169 352 248
3 29 190 249
3 71 190 353
3 100 249 353
3 190 353 249
3 60 352 351
3 100 352 353
3 71 351 353
3 352 353 351
3 11 148 188
3 50 148 354
3 70 188 354
3 148 354 188
3 19 149 250
3 50 149 355
3 101 250 355
3 149 355 250
3 29 189 251
3 70 189 356
3 101 251 356
3 189 356 251
3 50 355 354
3 101 355 356
3 70 354 356
3 355 356 354
3 24 248 246
3 100 248 357
3 99 246 357
3 248 357 246
3 29 249 251
3 100 249 358
3 101 251 358
3 249 358 251
3 19 247 250
3 99 247 359
3 101 250 359
3 247 359 250
3 100 358 357
3 101 358 359
3 99 357 359
3 358 359 357
3 8 124 208
3 38 124 360
3 80 208 360
3 124 360 208
3 13 125 252
3 38 125 361
3 102 252 361
3 125 361 252
3 34 209 253
3 80 209 362
3 102 253 362
3 209 362 253
3 38 361 360
3 102 361 362
3 80 360 362
3 361 362 360
3 1 127 172
3 39 127 363
3 62 172 363
3 127 363 172
3 13 126 254
3 39 126 364
3 103 254 364
3 126 364 254
3 25 173 255
3 62 173 365
3 103 255 365
3 173 365 255
3 39 364 363
3 103 364 365
3 62 363 365
3 364 365 363
3 7 211 175
3 81 211 366
3 63 175 366
3 211 366 175
3 34 210 256
3 81 210 367
3 104 256 367
3 210 367 256
3 25 174 257
3 63 174 368
3 104 257 368
3 174 368 257
3 81 367 366
3 104 367 368
3 63 366 368
3 367 368 366
3 13 254 252
3 103 254 369
3 102 252 369
3 254 369 252
3 25 255 257
3 103 255 370
3 104 257 370
3 255 370 257
3 34 253 256
3 102 253 371
3 104 256 371
3 253 371 256
3 103 370 369
3 104 370 371
3 102 369 371
3 370 371 369
3 1 128 172
3 40 128 372
3 62 172 372
3 128 372 172
3 14 129 258
3 40 129 373
3 105 258 373
3 129 373 258
3 25 173 259
3 62 173 374
3 105 259 374
3 173 374 259
3 40 373 372
3 105 373 374
3 62 372 374
3 373 374 372
3 9 131 215
3 41 131 375
3 83 215 375
3 131 375 215
3 14 130 260
3 41 130 376
3 106 260 376
3 130 376 260
3 35 214 261
3 83 214 377
3 106 261 377
3 214 377 261
3 41 376 375
3 106 376 377
3 83 375 377
3 376 377 375
3 7 175 212
3 63 175 378
3 82 212 378
3 175 378 212
3 25 174 262
3 63 174 379
3 107 262 379
3 174 379 262
3 35 213 263
3 82 213 380
3 107 263 380
3 213 380 263
3 63 379 378
3 107 379 380
3 82 378 380
3 379 380 378
3 14 260 258
3 106 260 381
3 105 258 381
3 260 381 258
3 35 261 263
3 106 261 382
3 107 263 382
3 261 382 263
3 25 259 262
3 105 259 383
3 107 262 383
3 259 383 262
3 106 382 381
3 107 382 383
3 105 381 383
3 382 383 381
3 9 132 200
3 42 132 384
3 76 200 384
3 132 384 200
3 15 133 264
3 42 133 385
3 108 264 385
3 133 385 264
3 32 201 265
3 76 201 386
3 108 265 386
3 201 386 265
3 42 385 384
3 108 385 386
3 76 384 386
3 385 386 384
3 2 135 176
3 43 135 387
3 64 176 387
3 135 387 176
3 15 134 266
3 43 134 388
3 109 266 388
3 134 388 266
3 26 177 267
3 64 177 389
3 109 267 389
3 177 389 267
3 43 388 387
3 109 388 389
3 64 387 389
3 388 389 387
3 6 203 179
3 77 203 390
3 65 179 390
3 203 390 179
3 32 202 268
3 77 202 391
3 110 268 391
3 202 391 268
3 26 178 269
3 65 178 392
3 110 269 392
3 178 392 269
3 77 391 390
3 110 391 392
3 65 390 392
3 391 392 390
3 15 266 264
3 109 266 393
3 108 264 393
3 266 393 264
3 26 267 269
3 109 267 394
3 110 269 394
3 267 394 269
3 32 265 268
3 108 265 395
3 110 268 395
3 265 395 268
3 109 394 393
3 110 394 395
3 108 393 395
3 394 395 393
3 6 179 204
3 65 179 396
3 78 204 396
3 179 396 204
3 26 178 270
3 65 178 397
3 111 270 397
3 178 397 270
3 33 205 271
3 78 205 398
3 111 271 398
3 205 398 271
3 65 397 396
3 111 397 398
3 78 396 398
3 397 398 396
3 2 176 136
3 64 176 399
3 44 136 399
3 176 399 136
3 26 177 272
3 64 177 400
3 112 272 400
3 177 400 272
3 16 137 273
3 44 137 401
3 112 273 401
3 137 401 273
3 64 400 399
3 112 400 401
3 44 399 401
3 400 401 399
3 10 207 139
3 79 207 402
3 45 139 402
3 207 402 139
3 33 206 274
3 79 206 403
3 113 274 403
3 206 403 274
3 16 138 275
3 45 138 404
3 113 275 404
3 138 404 275
3 79 403 402
3 113 403 404
3 45 402 404
3 403 404 402
3 26 272 270
3 112 272 405
3 111 270 405
3 272 405 270
3 16 273 275
3 112 273 406
3 113 275 406
3 273 406 275
3 33 271 274
3 111 271 407
3 113 274 407
3 271 407 274
3 112 406 405
3 113 406 407
3 111 405 407
3 406 407 405
3 5 195 183
3 73 195 408
3 67 183 408
3 195 408 183
3 30 194 276
3 73 194 409
3 114 276 409
3 194 409 276
3 27 182 277
3 67 182 410
3 114 277 410
3 182 410 277
3 73 409 408
3 114 409 410
3 67 408 410
3 409 410 408
3 10 192 140
3 72 192 411
3 46 140 411
3 192 411 140
3 30 193 278
3 72 193 412
3 115 278 412
3 193 412 278
3 17 141 279
3 46 141 413
3 115 279 413
3 141 413 279
3 72 412 411
3 115 412 413
3 46 411 413
3 412 413 411
3 3 180 143
3 66 180 414
3 47 143 414
3 180 414 143
3 27 181 280
3 66 181 415
3 116 280 415
3 181 415 280
3 17 142 281
3 47 142 416
3 116 281 416
3 142 416 281
3 66 415 414
3 116 415 416
3 47 414 416
3 415 416 414
3 30 278 276
3 115 278 417
3 114 276 417
3 278 417 276
3 17 279 281
3 115 279 418
3 116 281 418
3 279 418 281
3 27 277 280
3 114 277 419
3 116 280 419
3 277 419 280
3 115 418 417
3 116 418 419
3 114 417 419
3 418 419 417
3 11 199 147
3 75 199 420
3 49 147 420
3 199 420 147
3 31 198 282
3 75 198 421
3 117 282 421
3 198 421 282
3 18 146 283
3 49 146 422
3 117 283 422
3 146 422 283
3 75 421 420
3 117 421 422
3 49 420 422
3 421 422 420
3 5 196 183
3 74 196 423
3 67 183 423
3 196 423 183
3 31 197 284
3 74 197 424
3 118 284 424
3 197 424 284
3 27 182 285
3 67 182 425
3 118 285 425
3 182 425 285
3 74 424 423
3 118 424 425
3 67 423 425
3 424 425 423
3 3 144 180
3 48 144 426
3 66 180 426
3 144 426 180
3 18 145 286
3 48 145 427
3 119 286 427
3 145 427 286
3 27 181 287
3 66 181 428
3 119 287 428
3 181 428 287
3 48 427 426
3 119 427 428
3 66 426 428
3 427 428 426
3 31 284 282
3 118 284 429
3 117 282 429
3 284 429 282
3 27 285 287
3 118 285 430
3 119 287 430
3 285 430 287
3 18 283 286
3 117 283 431
3 119 286 431
3 283 431 286
3 118 430 429
3 119 430 431
3 117 429 431
3 430 431 429

CELL_TYPES 768
5
5
5
5
5
5
5
5
5
5
5
5
5
5
5
5
5
5
5
5
5
5
5
5
5
5
5
5
5
5
5
5
5
5
5
5
5
5
5
5
5
5
5
5
5
5
5
5
5
5
5
5
5
5
5
5
5
5
5
5
5
5
5
5
5
5
5
5
5
5
5
5
5
5
5
5
5
5
5
5
5
5
5
5
5
5
5
5
5
5
5
5
5
5
5
5
5
5
5
5
5
5
5
5
5
5
5
5
5
5
5
5
5
5
5
5
5
5
5
5
5
5
5
5
5
5
5
5
5
5
5
5
5
5
5
5
5
5
5
5
5
5
5
5
5
5
5
5
5
5
5
5
5
5
5
5
5
5
5
5
5
5
5
5
5
5
5
5
5
5
5
5
5
5
5
5
5
5
5
5
5
5
5
5
5
5
5
5
5
5
5
5
5
5
5
5
5
5
5
5
5
5
5
5
5
5
5
5
5
5
5
5
5
5
5
5
5
5
5
5
5
5
5
5
5
5
5
5
5
5
5
5
5
5
5
5
5
5
5
5
5
5
5
5
5
5
5
5
5
5
5
5
5
5
5
5
5
5
5
5
5
5
5
5
5
5
5
5
5
5
5
5
5
5
5
5
5
5
5
5
5
5
5
5
5
5
5
5
5
5
5
5
5
5
5
5
5
5
5
5
5
5
5
5
5
5
5
5
5
5
5
5
5
5
5
5
5
5
5
5
5
5
5
5
5
5
5
5
5
5
5
5
5
5
5
5
5
5
5
5
5
5
5
5
5
5
5
5
5
5
5
5
5
5
5
5
5
5
5
5
5
5
5
5
5
5
5
5
5
5
5
5
5
5
5
5
5
5
5
5
5
5
5
5
5
5
5
5
5
5
5
5
5
5
5
5
5
5
5
5
5
5
5
5
5
5
5
5
5
5
5
5
5
5
5
5
5
5
5
5
5
5
5
5
5
5
5
5
5
5
5
5
5
5
5
5
5
5
5
5
5
5
5
5
5
5
5
5
5
5
5
5
5
5
5
5
5
5
5
5
5
5
5
5
5
5
5
5
5
5
5
5
5
5
5
5
5
5
5
5
5
5
5
5
5
5
5
5
5
5
5
5
5
5
5
5
5
5
5
5
5
5
5
5
5
5
5
5
5
5
5
5
5
5
5
5
5
5
5
5
5
5
5
5
5
5
5
5
5
5
5
5
5
5
5
5
5
5
5
5
5
5
5
5
5
5
5
5
5
5
5
5
5
5
5
5
5
5
5
5
5
5
5
5
5
5
5
5
5
5
5
5
5
5
5
5
5
5
5
5
5
5
5
5
5
5
5
5
5
5
5
5
5
5
5
5
5
5
5
5
5
5
5
5
5
5
5
5
5
5
5
5
5
5
5
5
5
5
5
5
5
5
5
5
5
5
5
5
5
5
5
5
5
5
5
5
5
5
5
5
5
5
5
5
5
5
5
5
5
5
5
5
5
5
5
5
5
5
5
5
5
5
5
5
5
5
5
5
5
5
5
5
5
5
5
5
5
5
5
5
5
5
5
5
5
5
5
5
5
5
5
5
5
5
5
5
5
5
5
5
5
5
5
5
5
5
5
5
5
5
5
5
5
5
5
5
5
5
5
5
5
5
5
5
5
5
5
5
5
5
5
5
5
5
5
5
5
5
5
5
5
5
5
5
5
5
5
5
5
5
5
5
5
5
5
5
5
5
5
5
5
5
5
5
5
5
5
5

FIELD FieldData 0
POINT_DATA 432
VECTORS mode double
-0.022 0.005 0.0
-0.021 0.006 0.0
-0.021 0.004 0.0
-0.023 0.002 0.0
0.0 0.0 0.0
0.0 0.0 0.0
0.0 0.0 0.0
0.0 0.0 0.0
0.003 0.029 0.0
0.002 0.029 0.0
-0.002 0.029 0.0
-5.853e-04 0.03 0.0
0.001 0.045 0.0
0.002 0.042 0.0
0.002 0.042 0.0
-0.001 0.041 0.0
-0.003 0.043 0.0
-0.006 0.044 0.0
-0.005 0.044 0.0
-9.195e-05 0.045 0.0
0.0 0.0 0.0
0.0 0.0 0.0
0.0 0.0 0.0
0.0 0.0 0.0
0.066 0.032 0.0
0.066 0.03 0.0
0.061 0.034 0.0
0.061 0.041 0.0
0.044 0.007 0.0
0.044 0.01 0.0
0.042 0.013 0.0
0.042 0.012 0.0
0.042 0.009 0.0
0.042 0.012 0.0
0.043 0.006 0.0
0.043 0.007 0.0
-0.009 0.034 0.0
0.004 0.04 0.0
0.005 0.039 0.0
-0.007 0.033 0.0
-0.007 0.032 0.0
0.004 0.039 0.0
0.002 0.038 0.0
-0.01 0.031 0.0
-0.011 0.032 0.0
-5.675e-04 0.041 0.0
-0.002 0.04 0.0
-0.014 0.033 0.0
-0.014 0.032 0.0
-0.002 0.041 0.0
0.002 0.041 0.0
-0.009 0.034 0.0
0.0 0.0 0.0
0.0 0.0 0.0
0.0 0.0 0.0
0.0 0.0 0.0
0.0 0.0 0.0
0.0 0.0 0.0
0.0 0.0 0.0
0.0 0.0 0.0
0.067 0.011 0.0
0.019 0.039 0.0
0.02 0.037 0.0
0.068 0.009 0.0
0.015 0.038 0.0
0.064 0.015 0.0
0.013 0.041 0.0
0.065 0.019 0.0
0.036 9.344e-04 0.0
0.033 0.02 0.0
0.032 0.023 0.0
0.037 0.002 0.0
0.03 0.025 0.0
0.035 0.006 0.0
0.035 0.005 0.0
0.031 0.024 0.0
0.031 0.021 0.0
0.035 0.003 0.0
0.035 0.004 0.0
0.03 0.024 0.0
0.033 0.02 0.0
0.036 5.317e-04 0.0
0.036 0.001 0.0
0.032 0.021 0.0
0.026 5.753e-04 0.0
0.026 0.001 0.0
0.038 0.008 0.0
0.026 0.002 0.0
0.036 0.009 0.0
0.026 0.002 0.0
0.037 0.004 0.0
0.026 -0.001 0.0
0.027 -0.001 0.0
0.026 -6.351e-04 0.0
0.037 0.006 0.0
0.026 9.899e-05 0.0
0.047 0.033 0.0
0.07 0.02 0.0
0.046 0.041 0.0
0.045 0.041 0.0
0.07 0.021 0.0
0.047 0.036 0.0
0.046 0.031 0.0
0.045 0.038 0.0
0.07 0.019 0.0
0.045 0.038 0.0
0.046 0.032 0.0
0.07 0.019 0.0
0.043 0.034 0.0
0.04 0.041 0.0
0.066 0.024 0.0
0.066 0.025 0.0
0.04 0.042 0.0
0.043 0.038 0.0
0.065 0.029 0.0
0.041 0.039 0.0
0.039 0.047 0.0
0.042 0.039 0.0
0.066 0.029 0.0
0.039 0.047 0.0
-0.016 0.021 0.0
-0.004 0.043 0.0
0.002 0.045 0.0
0.002 0.034 0.0
0.003 0.034 0.0
0.003 0.042 0.0
-0.003 0.041 0.0
-0.015 0.021 0.0
-0.015 0.021 0.0
-0.003 0.041 0.0
0.002 0.043 0.0
0.002 0.034 0.0
9.864e-04 0.033 0.0
-3.098e-04 0.041 0.0
-0.007 0.039 0.0
-0.016 0.018 0.0
-0.017 0.019 0.0
-0.008 0.042 0.0
-0.003 0.045 0.0
-0.002 0.035 0.0
-0.003 0.034 0.0
-0.005 0.044 0.0
-0.011 0.043 0.0
-0.019 0.018 0.0
-0.019 0.018 0.0
-0.011 0.042 0.0
-0.004 0.045 0.0
-0.002 0.035 0.0
-1.771e-04 0.035 0.0
5.1e-04 0.046 0.0
-0.005 0.044 0.0
-0.016 0.021 0.0
0.0 0.0 0.0
0.0 0.0 0.0
0.0 0.0 0.0
0.0 0.0 0.0
0.0 0.0 0.0
0.0 0.0 0.0
0.0 0.0 0.0
0.0 0.0 0.0
0.0 0.0 0.0
0.0 0.0 0.0
0.0 0.0 0.0
0.0 0.0 0.0
0.0 0.0 0.0
0.0 0.0 0.0
0.0 0.0 0.0
0.0 0.0 0.0
0.044 0.003 0.0
0.076 0.022 0.0
0.047 0.041 0.0
-0.008 0.028 0.0
-0.007 0.027 0.0
0.047 0.039 0.0
0.077 0.02 0.0
0.044 0.002 0.0
-0.009 0.026 0.0
0.042 0.042 0.0
0.072 0.026 0.0
0.042 0.006 0.0
-0.012 0.026 0.0
0.041 0.048 0.0
0.072 0.032 0.0
0.042 0.009 0.0
0.024 6.623e-04 0.0
0.044 0.004 0.0
0.042 0.014 0.0
0.02 0.027 0.0
0.017 0.03 0.0
0.042 0.018 0.0
0.045 0.006 0.0
0.025 0.001 0.0
0.016 0.03 0.0
0.04 0.02 0.0
0.042 0.01 0.0
0.024 0.004 0.0
0.024 0.004 0.0
0.043 0.009 0.0
0.041 0.019 0.0
0.017 0.032 0.0
0.018 0.028 0.0
0.041 0.016 0.0
0.043 0.006 0.0
0.024 0.002 0.0
0.024 0.003 0.0
0.042 0.008 0.0
0.04 0.019 0.0
0.016 0.032 0.0
0.02 0.029 0.0
0.042 0.014 0.0
0.044 0.003 0.0
0.024 3.096e-04 0.0
0.025 5.557e-04 0.0
0.044 0.004 0.0
0.041 0.015 0.0
0.019 0.029 0.0
0.014 -2.535e-04 0.0
0.039 0.005 0.0
0.014 1.717e-04 0.0
0.038 0.006 0.0
0.042 0.01 0.0
0.041 0.011 0.0
0.037 0.006 0.0
0.014 4.627e-04 0.0
0.04 0.011 0.0
0.04 0.012 0.0
0.014 7.465e-04 0.0
0.038 0.008 0.0
0.041 0.006 0.0
0.042 0.006 0.0
0.039 0.002 0.0
0.014 -0.001 0.0
0.04 0.002 0.0
0.015 -0.001 0.0
0.038 0.003 0.0
0.014 -8.286e-04 0.0
0.041 0.007 0.0
0.041 0.008 0.0
0.014 -5.285e-04 0.0
0.039 0.004 0.0
0.053 0.021 0.0
0.029 0.045 0.0
0.062 0.015 0.0
0.076 0.028 0.0
0.026 0.048 0.0
0.063 0.04 0.0
0.061 0.04 0.0
0.025 0.048 0.0
0.077 0.03 0.0
0.061 0.017 0.0
0.027 0.048 0.0
0.056 0.026 0.0
0.028 0.042 0.0
0.053 0.02 0.0
0.026 0.045 0.0
0.062 0.037 0.0
0.062 0.015 0.0
0.077 0.028 0.0
0.025 0.044 0.0
0.062 0.037 0.0
0.027 0.043 0.0
0.053 0.021 0.0
0.077 0.028 0.0
0.062 0.016 0.0
0.023 0.042 0.0
0.051 0.024 0.0
0.021 0.045 0.0
0.056 0.041 0.0
0.06 0.019 0.0
0.072 0.033 0.0
0.071 0.032 0.0
0.058 0.02 0.0
0.057 0.042 0.0
0.021 0.047 0.0
0.052 0.028 0.0
0.023 0.047 0.0
0.057 0.022 0.0
0.071 0.039 0.0
0.051 0.029 0.0
0.02 0.047 0.0
0.056 0.049 0.0
0.018 0.051 0.0
0.05 0.028 0.0
0.022 0.048 0.0
0.059 0.024 0.0
0.071 0.039 0.0
0.019 0.051 0.0
0.056 0.049 0.0
0.019 5.216e-04 0.0
0.016 1.886e-04 0.0
0.033 0.002 0.0
0.019 0.002 0.0
0.016 0.001 0.0
0.032 0.004 0.0
0.031 0.025 0.0
0.04 0.017 0.0
0.041 0.019 0.0
0.027 0.001 0.0
0.037 0.005 0.0
0.039 0.005 0.0
0.019 0.002 0.0
0.031 0.004 0.0
0.017 0.001 0.0
0.03 0.025 0.0
0.038 0.019 0.0
0.04 0.02 0.0
0.019 0.002 0.0
0.016 0.002 0.0
0.032 0.005 0.0
0.036 0.006 0.0
0.037 0.007 0.0
0.027 0.003 0.0
0.033 0.021 0.0
0.04 0.013 0.0
0.042 0.014 0.0
0.019 -4.181e-04 0.0
0.032 -2.037e-06 0.0
0.017 -7.347e-04 0.0
0.02 -1.843e-04 0.0
0.033 3.114e-04 0.0
0.017 -5.52e-04 0.0
0.037 0.001 0.0
0.027 -0.001 0.0
0.039 0.002 0.0
0.019 -1.019e-04 0.0
0.032 6.779e-04 0.0
0.017 -3.201e-04 0.0
0.032 0.022 0.0
0.04 0.014 0.0
0.041 0.016 0.0
0.019 9.246e-04 0.0
0.017 2.022e-04 0.0
0.032 0.002 0.0
0.036 0.002 0.0
0.038 0.004 0.0
0.028 2.342e-04 0.0
0.024 0.034 0.0
0.043 0.03 0.0
0.029 0.043 0.0
0.056 0.006 0.0
0.065 0.011 0.0
0.078 0.018 0.0
0.007 0.039 0.0
0.018 0.047 0.0
0.037 0.048 0.0
0.065 0.029 0.0
0.07 0.037 0.0
0.054 0.045 0.0
0.006 0.039 0.0
0.037 0.046 0.0
0.018 0.049 0.0
0.057 0.007 0.0
0.077 0.019 0.0
0.066 0.014 0.0
0.022 0.037 0.0
0.027 0.045 0.0
0.043 0.035 0.0
0.069 0.038 0.0
0.067 0.033 0.0
0.053 0.047 0.0
0.024 0.034 0.0
0.028 0.04 0.0
0.043 0.03 0.0
0.008 0.037 0.0
0.019 0.044 0.0
0.037 0.045 0.0
0.057 0.006 0.0
0.065 0.011 0.0
0.078 0.017 0.0
0.05 0.039 0.0
0.07 0.036 0.0
0.067 0.03 0.0
0.008 0.037 0.0
0.019 0.044 0.0
0.037 0.045 0.0
0.023 0.034 0.0
0.027 0.041 0.0
0.042 0.031 0.0
0.057 0.006 0.0
0.077 0.017 0.0
0.066 0.012 0.0
0.05 0.04 0.0
0.065 0.029 0.0
0.071 0.037 0.0
0.021 0.034 0.0
0.025 0.041 0.0
0.041 0.032 0.0
0.004 0.037 0.0
0.014 0.044 0.0
0.032 0.047 0.0
0.054 0.01 0.0
0.062 0.015 0.0
0.074 0.023 0.0
0.046 0.042 0.0
0.064 0.04 0.0
0.063 0.034 0.0
0.054 0.011 0.0
0.073 0.023 0.0
0.063 0.017 0.0
0.004 0.038 0.0
0.032 0.046 0.0
0.014 0.048 0.0
0.019 0.037 0.0
0.04 0.036 0.0
0.023 0.046 0.0
0.063 0.04 0.0
0.047 0.047 0.0
0.062 0.037 0.0
0.054 0.014 0.0
0.061 0.02 0.0
0.074 0.029 0.0
0.018 0.037 0.0
0.039 0.036 0.0
0.022 0.046 0.0
7.137e-04 0.04 0.0
0.03 0.051 0.0
0.011 0.051 0.0
0.06 0.038 0.0
0.044 0.049 0.0
0.064 0.049 0.0
0.019 0.038 0.0
0.039 0.036 0.0
0.022 0.046 0.0
0.054 0.014 0.0
0.062 0.02 0.0
0.074 0.028 0.0
7.729e-04 0.04 0.0
0.011 0.049 0.0
0.03 0.053 0.0
0.06 0.038 0.0
0.064 0.047 0.0
0.047 0.052 0.0
CELL_DATA 768
