# vtk DataFile Version 3.0

ASCII
DATASET UNSTRUCTURED_GRID
POINTS 145 float
0.0 0.0 0.0
1.0 0.0 0.0
1.0 1.0 0.0
0.0 1.0 0.0
0.5 0.5 0.0
0.5 0.0 0.0
1.0 0.5 0.0
0.5 1.0 0.0
0.0 0.5 0.0
0.25 0.25 0.0
0.75 0.25 0.0
0.75 0.75 0.0
0.25 0.75 0.0
0.25 0.0 0.0
0.75 0.0 0.0
1.0 0.25 0.0
1.0 0.75 0.0
0.75 1.0 0.0
0.25 1.0 0.0
0.0 0.75 0.0
0.0 0.25 0.0
0.375 0.375 0.0
0.125 0.125 0.0
0.875 0.125 0.0
0.625 0.375 0.0
0.875 0.875 0.0
0.625 0.625 0.0
0.375 0.625 0.0
0.125 0.875 0.0
0.375 0.125 0.0
0.625 0.125 0.0
0.5 0.25 0.0
0.125 0.625 0.0
0.125 0.375 0.0
0.25 0.5 0.0
0.875 0.375 0.0
0.875 0.625 0.0
0.75 0.5 0.0
0.625 0.875 0.0
0.375 0.875 0.0
0.5 0.75 0.0
0.125 0.0 0.0
0.375 0.0 0.0
0.625 0.0 0.0
0.875 0.0 0.0
1.0 0.125 0.0
1.0 0.375 0.0
1.0 0.625 0.0
1.0 0.875 0.0
0.875 1.0 0.0
0.625 1.0 0.0
0.375 1.0 0.0
0.125 1.0 0.0
0.0 0.875 0.0
0.0 0.625 0.0
0.0 0.375 0.0
0.0 0.125 0.0
0.438 0.438 0.0
0.313 0.313 0.0
0.188 0.188 0.0
0.063 0.063 0.0
0.938 0.063 0.0
0.813 0.188 0.0
0.688 0.313 0.0
0.563 0.438 0.0
0.938 0.938 0.0
0.813 0.813 0.0
0.688 0.688 0.0
0.563 0.563 0.0
0.438 0.563 0.0
0.313 0.688 0.0
0.188 0.813 0.0
0.063 0.938 0.0
0.438 0.063 0.0
0.313 0.188 0.0
0.563 0.063 0.0
0.688 0.188 0.0
0.375 0.25 0.0
0.625 0.25 0.0
0.063 0.563 0.0
0.188 0.688 0.0
0.063 0.438 0.0
0.188 0.313 0.0
0.25 0.625 0.0
0.25 0.375 0.0
0.938 0.438 0.0
0.813 0.313 0.0
0.938 0.563 0.0
0.813 0.688 0.0
0.75 0.375 0.0
0.75 0.625 0.0
0.563 0.938 0.0
0.688 0.813 0.0
0.438 0.938 0.0
0.313 0.813 0.0
0.625 0.75 0.0
0.375 0.75 0.0
0.188 0.063 0.0
0.313 0.063 0.0
0.25 0.125 0.0
0.813 0.063 0.0
0.688 0.063 0.0
0.75 0.125 0.0
0.5 0.375 0.0
0.438 0.313 0.0
0.563 0.313 0.0
0.5 0.125 0.0
0.563 0.188 0.0
0.438 0.188 0.0
0.063 0.813 0.0
0.063 0.688 0.0
0.125 0.75 0.0
0.063 0.188 0.0
0.063 0.313 0.0
0.125 0.25 0.0
0.375 0.5 0.0
0.313 0.563 0.0
0.313 0.438 0.0
0.125 0.5 0.0
0.188 0.438 0.0
0.188 0.563 0.0
0.938 0.188 0.0
0.938 0.313 0.0
0.875 0.25 0.0
0.938 0.813 0.0
0.938 0.688 0.0
0.875 0.75 0.0
0.625 0.5 0.0
0.688 0.438 0.0
0.688 0.563 0.0
0.875 0.5 0.0
0.813 0.563 0.0
0.813 0.438 0.0
0.813 0.938 0.0
0.688 0.938 0.0
0.75 0.875 0.0
0.188 0.938 0.0
0.313 0.938 0.0
0.25 0.875 0.0
0.5 0.625 0.0
0.563 0.688 0.0
0.438 0.688 0.0
0.5 0.875 0.0
0.438 0.813 0.0
0.563 0.813 0.0
CELLS 256 1024
3 0 41 60
3 13 41 97
3 22 60 97
3 41 97 60
3 5 42 73
3 13 42 98
3 29 73 98
3 42 98 73
3 9 59 74
3 22 59 99
3 29 74 99
3 59 99 74
3 13 98 97
3 29 98 99
3 22 97 99
3 98 99 97
3 1 44 61
3 14 44 100
3 23 61 100
3 44 100 61
3 5 43 75
3 14 43 101
3 30 75 101
3 43 101 75
3 10 62 76
3 23 62 102
3 30 76 102
3 62 102 76
3 14 101 100
3 30 101 102
3 23 100 102
3 101 102 100
3 4 57 64
3 21 57 103
3 24 64 103
3 57 103 64
3 9 58 77
3 21 58 104
3 31 77 104
3 58 104 77
3 10 63 78
3 24 63 105
3 31 78 105
3 63 105 78
3 21 104 103
3 31 104 105
3 24 103 105
3 104 105 103
3 5 75 73
3 30 75 106
3 29 73 106
3 75 106 73
3 10 76 78
3 30 76 107
3 31 78 107
3 76 107 78
3 9 74 77
3 29 74 108
3 31 77 108
3 74 108 77
3 30 107 106
3 31 107 108
3 29 106 108
3 107 108 106
3 3 53 72
3 19 53 109
3 28 72 109
3 53 109 72
3 8 54 79
3 19 54 110
3 32 79 110
3 54 110 79
3 12 71 80
3 28 71 111
3 32 80 111
3 71 111 80
3 19 110 109
3 32 110 111
3 28 109 111
3 110 111 109
3 0 56 60
3 20 56 112
3 22 60 112
3 56 112 60
3 8 55 81
3 20 55 113
3 33 81 113
3 55 113 81
3 9 59 82
3 22 59 114
3 33 82 114
3 59 114 82
3 20 113 112
3 33 113 114
3 22 112 114
3 113 114 112
3 4 69 57
3 27 69 115
3 21 57 115
3 69 115 57
3 12 70 83
3 27 70 116
3 34 83 116
3 70 116 83
3 9 58 84
3 21 58 117
3 34 84 117
3 58 117 84
3 27 116 115
3 34 116 117
3 21 115 117
3 116 117 115
3 8 81 79
3 33 81 118
3 32 79 118
3 81 118 79
3 9 82 84
3 33 82 119
3 34 84 119
3 82 119 84
3 12 80 83
3 32 80 120
3 34 83 120
3 80 120 83
3 33 119 118
3 34 119 120
3 32 118 120
3 119 120 118
3 1 45 61
3 15 45 121
3 23 61 121
3 45 121 61
3 6 46 85
3 15 46 122
3 35 85 122
3 46 122 85
3 10 62 86
3 23 62 123
3 35 86 123
3 62 123 86
3 15 122 121
3 35 122 123
3 23 121 123
3 122 123 121
3 2 48 65
3 16 48 124
3 25 65 124
3 48 124 65
3 6 47 87
3 16 47 125
3 36 87 125
3 47 125 87
3 11 66 88
3 25 66 126
3 36 88 126
3 66 126 88
3 16 125 124
3 36 125 126
3 25 124 126
3 125 126 124
3 4 64 68
3 24 64 127
3 26 68 127
3 64 127 68
3 10 63 89
3 24 63 128
3 37 89 128
3 63 128 89
3 11 67 90
3 26 67 129
3 37 90 129
3 67 129 90
3 24 128 127
3 37 128 129
3 26 127 129
3 128 129 127
3 6 87 85
3 36 87 130
3 35 85 130
3 87 130 85
3 11 88 90
3 36 88 131
3 37 90 131
3 88 131 90
3 10 86 89
3 35 86 132
3 37 89 132
3 86 132 89
3 36 131 130
3 37 131 132
3 35 130 132
3 131 132 130
3 2 49 65
3 17 49 133
3 25 65 133
3 49 133 65
3 7 50 91
3 17 50 134
3 38 91 134
3 50 134 91
3 11 66 92
3 25 66 135
3 38 92 135
3 66 135 92
3 17 134 133
3 38 134 135
3 25 133 135
3 134 135 133
3 3 52 72
3 18 52 136
3 28 72 136
3 52 136 72
3 7 51 93
3 18 51 137
3 39 93 137
3 51 137 93
3 12 71 94
3 28 71 138
3 39 94 138
3 71 138 94
3 18 137 136
3 39 137 138
3 28 136 138
3 137 138 136
3 4 68 69
3 26 68 139
3 27 69 139
3 68 139 69
3 11 67 95
3 26 67 140
3 40 95 140
3 67 140 95
3 12 70 96
3 27 70 141
3 40 96 141
3 70 141 96
3 26 140 139
3 40 140 141
3 27 139 141
3 140 141 139
3 7 93 91
3 39 93 142
3 38 91 142
3 93 142 91
3 12 94 96
3 39 94 143
3 40 96 143
3 94 143 96
3 11 92 95
3 38 92 144
3 40 95 144
3 92 144 95
3 39 143 142
3 40 143 144
3 38 142 144
3 143 144 142

CELL_TYPES 256
5
5
5
5
5
5
5
5
5
5
5
5
5
5
5
5
5
5
5
5
5
5
5
5
5
5
5
5
5
5
5
5
5
5
5
5
5
5
5
5
5
5
5
5
5
5
5
5
5
5
5
5
5
5
5
5
5
5
5
5
5
5
5
5
5
5
5
5
5
5
5
5
5
5
5
5
5
5
5
5
5
5
5
5
5
5
5
5
5
5
5
5
5
5
5
5
5
5
5
5
5
5
5
5
5
5
5
5
5
5
5
5
5
5
5
5
5
5
5
5
5
5
5
5
5
5
5
5
5
5
5
5
5
5
5
5
5
5
5
5
5
5
5
5
5
5
5
5
5
5
5
5
5
5
5
5
5
5
5
5
5
5
5
5
5
5
5
5
5
5
5
5
5
5
5
5
5
5
5
5
5
5
5
5
5
5
5
5
5
5
5
5
5
5
5
5
5
5
5
5
5
5
5
5
5
5
5
5
5
5
5
5
5
5
5
5
5
5
5
5
5
5
5
5
5
5
5
5
5
5
5
5
5
5
5
5
5
5
5
5
5
5
5
5
5
5
5
5
5
5
5
5
5
5
5
5

FIELD FieldData 0
POINT_DATA 145
VECTORS mode double
0.033 0.046 0.0
-0.029 0.003 0.0
0.032 0.046 0.0
0.008 0.051 0.0
-0.021 0.114 0.0
-0.089 0.056 0.0
0.038 0.041 0.0
0.045 -0.022 0.0
-0.053 0.078 0.0
-0.013 0.105 0.0
-0.005 0.089 0.0
0.042 -0.038 0.0
0.019 0.028 0.0
-0.01 0.029 0.0
-0.061 0.037 0.0
-0.008 0.043 0.0
0.063 0.02 0.0
0.062 -0.008 0.0
0.042 0.013 0.0
0.006 0.05 0.0
-0.011 0.045 0.0
-0.028 0.165 0.0
0.029 0.027 0.0
-0.016 0.046 0.0
-0.01 0.121 0.0
0.063 -0.015 0.0
0.005 0.022 0.0
-0.013 0.079 0.0
0.043 0.022 0.0
-0.039 0.095 0.0
-0.05 0.105 0.0
-0.037 0.157 0.0
0.003 0.081 0.0
-0.017 0.104 0.0
-0.015 0.135 0.0
0.029 0.049 0.0
0.06 -0.003 0.0
0.028 0.043 0.0
0.036 -0.045 0.0
0.027 -0.019 0.0
0.004 -0.003 0.0
0.03 0.024 0.0
-0.061 0.044 0.0
-0.085 0.05 0.0
-0.036 0.019 0.0
-0.022 0.025 0.0
0.013 0.047 0.0
0.055 0.028 0.0
0.053 0.024 0.0
0.054 0.017 0.0
0.054 -0.022 0.0
0.04 -0.009 0.0
0.033 0.034 0.0
0.023 0.042 0.0
-0.028 0.065 0.0
-0.048 0.067 0.0
0.028 0.029 0.0
-0.026 0.153 0.0
-0.024 0.149 0.0
0.004 0.068 0.0
0.032 0.034 0.0
-0.028 0.025 0.0
-0.012 0.072 0.0
-0.006 0.111 0.0
-0.016 0.125 0.0
0.055 0.019 0.0
0.059 -0.031 0.0
0.025 -0.014 0.0
-0.009 0.071 0.0
-0.019 0.103 0.0
0.002 0.055 0.0
0.034 0.024 0.0
0.029 0.04 0.0
-0.065 0.083 0.0
-0.023 0.107 0.0
-0.075 0.088 0.0
-0.03 0.107 0.0
-0.032 0.15 0.0
-0.027 0.135 0.0
-0.025 0.089 0.0
0.014 0.063 0.0
-0.036 0.096 0.0
-0.012 0.111 0.0
-4.752e-04 0.091 0.0
-0.02 0.146 0.0
0.035 0.042 0.0
0.012 0.071 0.0
0.054 0.023 0.0
0.054 -0.019 0.0
0.013 0.082 0.0
0.038 0.001 0.0
0.042 -0.034 0.0
0.039 -0.041 0.0
0.036 -0.024 0.0
0.023 0.006 0.0
0.021 -0.023 0.0
0.007 0.021 0.0
0.012 0.037 0.0
-0.031 0.06 0.0
-0.01 0.073 0.0
-0.039 0.048 0.0
-0.061 0.072 0.0
-0.038 0.081 0.0
-0.027 0.16 0.0
-0.033 0.17 0.0
-0.027 0.155 0.0
-0.06 0.118 0.0
-0.047 0.139 0.0
-0.045 0.14 0.0
0.027 0.042 0.0
0.002 0.064 0.0
0.021 0.052 0.0
0.013 0.044 0.0
-0.02 0.075 0.0
-0.004 0.08 0.0
-0.022 0.141 0.0
-0.013 0.12 0.0
-0.023 0.158 0.0
-0.021 0.113 0.0
-0.02 0.134 0.0
-0.009 0.113 0.0
-0.011 0.046 0.0
0.011 0.052 0.0
2.82e-04 0.065 0.0
0.065 0.003 0.0
0.065 0.007 0.0
0.066 -0.011 0.0
-3.959e-04 0.082 0.0
0.008 0.089 0.0
0.019 0.04 0.0
0.045 0.031 0.0
0.046 0.02 0.0
0.031 0.055 0.0
0.062 -0.013 0.0
0.055 -0.031 0.0
0.058 -0.031 0.0
0.042 0.018 0.0
0.04 -0.004 0.0
0.038 0.012 0.0
-0.011 0.058 0.0
0.006 0.015 0.0
-0.003 0.042 0.0
0.028 -0.03 0.0
0.018 -0.008 0.0
0.024 -0.027 0.0
CELL_DATA 256
